                         Program Version 4.2.1 -  RELEASE  -
|  1> # Use EPR-II is a special basis set for epr, autoaux creates a large auxiliary basis
|  2> !PBE EPR-II AUTOAUX RIJCOSX
|  3>
|  4> # use original (unoptimized) cluster xyz
|  5> *xyzfile -1 3 nv.xyz
|  6>
|  7> # Parallelization
|  8> %PAL NPROCS 72 END
|  9>
| 10> # ZFS calculation
| 11> %EPRNMR DTENSOR SSANDSO
| 12>     DSS     UNO
| 13>     DSOC    CP
| 14> END
| 15>
| 16>                          ****END OF INPUT****

CARTESIAN COORDINATES (ANGSTROEM)
---------------------------------
  C      0.542355    1.440918   -2.249811
  C      1.436180    0.237177   -4.258023
  C     -1.841847    2.244465   -2.199697
  C     -1.022769   -2.717257   -2.199804
  C      2.864666    0.472945   -2.199700
  C     -2.343595    0.874376   -0.144983
  C      2.338486   -0.887948   -0.144986
  C     -1.938228   -1.581209   -0.145035
  C      1.929026    1.592431   -0.144933
  C     -0.400254    2.469167   -0.144931
  C      0.414572   -2.466797   -0.145037
  C      1.402889    0.231579    0.395617
  C     -0.500888   -1.330745    0.395566
  C     -0.902011    1.099138    0.395618
  C     -1.439679   -0.237579   -3.737621
  C      0.514058    1.365744   -3.737569
  C      0.925708   -1.127905   -3.737623
  C     -2.342559    0.874781   -1.693673
  C      2.337972   -0.886960   -1.693676
  C     -1.937129   -1.581194   -1.693726
  C      1.928847    1.591396   -1.693623
  C     -0.400804    2.468272   -1.693621
  C      0.413752   -2.466060   -1.693727
  C     -1.518977   -0.250702   -2.249865
  C      0.976675   -1.190059   -2.249867
  C     -0.923357    1.125301   -4.258021
  C     -0.512725   -1.362181   -4.258075
  N      0.000000    0.000000    0.000000
  H      2.433768    0.401850   -3.907906
  H      1.429115    0.236034   -5.328003
  H     -1.852975    2.258060   -3.269544
  H     -2.479560    3.021542   -1.833101
  H     -1.376038   -3.655812   -1.826663
  H     -1.031415   -2.740225   -3.269519
  H      2.881995    0.475829   -3.269548
  H      3.856494    0.636667   -1.833106
  H     -2.710080   -0.067056    0.207581
  H     -2.973415    1.666280    0.203028
  H      3.334069   -0.716977    0.207839
  H      1.984285   -1.835844    0.202756
  H     -2.287951   -2.528910    0.207753
  H     -2.582027   -0.800527    0.202744
  H      1.296969    2.380519    0.207668
  H      2.929748    1.741905    0.203076
  H     -1.046123    3.245873    0.207895
  H      0.597737    2.636358    0.202848
  H      1.413107   -2.313477    0.207562
  H      0.043662   -3.408199    0.202936
  H      1.415207    0.233589    1.465539
  H     -0.505297   -1.342461    1.465488
  H     -0.909944    1.108770    1.465541
  H     -2.431176   -0.401246   -4.105093
  H      0.868063    2.306256   -4.105005
  H      1.563208   -1.904723   -4.105096
  H     -3.342724    0.717172   -2.039696
  H      2.985984   -1.664939   -2.039701
  H     -2.934886   -1.753384   -2.039749
  H      2.292432    2.536384   -2.039611
  H     -0.051050    3.418465   -2.039609
  H      1.050339   -3.253414   -2.039752
  H     -0.918946    1.119961   -5.328007
  H     -1.564732    1.906841   -3.907684
  H     -0.868904   -2.308469   -3.907994
  H     -0.510191   -1.355447   -5.328055

 Total Charge           Charge          ....   -1
 Multiplicity           Mult            ....    3
 Number of Electrons    NEL             ....  206
 Basis Dimension        Dim             ....  728

ORBITAL ENERGIES
----------------
                 SPIN UP ORBITALS
  NO   OCC          E(Eh)            E(eV)
   0   1.0000     -13.855712      -377.0331
   1   1.0000      -9.801373      -266.7089
   2   1.0000      -9.801316      -266.7074
   3   1.0000      -9.801125      -266.7022
   4   1.0000      -9.762834      -265.6602
   5   1.0000      -9.762827      -265.6600
   6   1.0000      -9.762805      -265.6594
   7   1.0000      -9.762778      -265.6587
   8   1.0000      -9.762704      -265.6567
   9   1.0000      -9.762590      -265.6536
  10   1.0000      -9.755852      -265.4702
  11   1.0000      -9.755652      -265.4648
  12   1.0000      -9.755381      -265.4574
  13   1.0000      -9.749165      -265.2883
  14   1.0000      -9.748964      -265.2828
  15   1.0000      -9.748813      -265.2787
  16   1.0000      -9.748420      -265.2680
  17   1.0000      -9.748370      -265.2666
  18   1.0000      -9.748339      -265.2658
  19   1.0000      -9.740070      -265.0408
  20   1.0000      -9.739592      -265.0278
  21   1.0000      -9.739290      -265.0196
  22   1.0000      -9.735864      -264.9263
  23   1.0000      -9.735387      -264.9133
  24   1.0000      -9.735282      -264.9105
  25   1.0000      -9.734716      -264.8951
  26   1.0000      -9.734524      -264.8899
  27   1.0000      -9.734155      -264.8798
  28   1.0000      -0.729689       -19.8558
  29   1.0000      -0.667495       -18.1635
  30   1.0000      -0.652333       -17.7509
  31   1.0000      -0.652327       -17.7507
  32   1.0000      -0.609369       -16.5818
  33   1.0000      -0.598181       -16.2773
  34   1.0000      -0.598049       -16.2737
  35   1.0000      -0.582482       -15.8501
  36   1.0000      -0.582403       -15.8480
  37   1.0000      -0.545786       -14.8516
  38   1.0000      -0.521605       -14.1936
  39   1.0000      -0.521560       -14.1924
  40   1.0000      -0.518985       -14.1223
  41   1.0000      -0.515988       -14.0407
  42   1.0000      -0.515674       -14.0322
  43   1.0000      -0.501957       -13.6589
  44   1.0000      -0.444688       -12.1006
  45   1.0000      -0.444615       -12.0986
  46   1.0000      -0.423883       -11.5344
  47   1.0000      -0.405282       -11.0283
  48   1.0000      -0.405256       -11.0276
  49   1.0000      -0.400305       -10.8929
  50   1.0000      -0.397558       -10.8181
  51   1.0000      -0.384038       -10.4502
  52   1.0000      -0.384001       -10.4492
  53   1.0000      -0.358438        -9.7536
  54   1.0000      -0.358010        -9.7420
  55   1.0000      -0.357882        -9.7385
  56   1.0000      -0.346479        -9.4282
  57   1.0000      -0.312902        -8.5145
  58   1.0000      -0.308987        -8.4080
  59   1.0000      -0.308897        -8.4055
  60   1.0000      -0.301301        -8.1988
  61   1.0000      -0.301235        -8.1970
  62   1.0000      -0.282090        -7.6761
  63   1.0000      -0.279266        -7.5992
  64   1.0000      -0.279234        -7.5983
  65   1.0000      -0.275680        -7.5016
  66   1.0000      -0.275637        -7.5005
  67   1.0000      -0.242681        -6.6037
  68   1.0000      -0.242628        -6.6023
  69   1.0000      -0.238256        -6.4833
  70   1.0000      -0.231095        -6.2884
  71   1.0000      -0.228455        -6.2166
  72   1.0000      -0.226332        -6.1588
  73   1.0000      -0.226243        -6.1564
  74   1.0000      -0.212469        -5.7816
  75   1.0000      -0.212444        -5.7809
  76   1.0000      -0.210152        -5.7185
  77   1.0000      -0.197038        -5.3617
  78   1.0000      -0.190632        -5.1874
  79   1.0000      -0.190607        -5.1867
  80   1.0000      -0.179311        -4.8793
  81   1.0000      -0.179294        -4.8788
  82   1.0000      -0.171447        -4.6653
  83   1.0000      -0.166795        -4.5387
  84   1.0000      -0.166758        -4.5377
  85   1.0000      -0.161139        -4.3848
  86   1.0000      -0.158682        -4.3180
  87   1.0000      -0.156258        -4.2520
  88   1.0000      -0.156174        -4.2497
  89   1.0000      -0.146936        -3.9983
  90   1.0000      -0.146917        -3.9978
  91   1.0000      -0.135116        -3.6767
  92   1.0000      -0.119937        -3.2637
  93   1.0000      -0.119861        -3.2616
  94   1.0000      -0.095582        -2.6009
  95   1.0000      -0.095552        -2.6001
  96   1.0000      -0.092626        -2.5205
  97   1.0000      -0.077071        -2.0972
  98   1.0000      -0.059065        -1.6072
  99   1.0000      -0.056859        -1.5472
 100   1.0000      -0.056542        -1.5386
 101   1.0000       0.002028         0.0552
 102   1.0000       0.047271         1.2863
 103   1.0000       0.047616         1.2957
 104   0.0000       0.096911         2.6371
 105   0.0000       0.113808         3.0969
 106   0.0000       0.116333         3.1656
 107   0.0000       0.117230         3.1900
 108   0.0000       0.124550         3.3892

                 SPIN DOWN ORBITALS
  NO   OCC          E(Eh)            E(eV)
   0   1.0000     -13.855660      -377.0317
   1   1.0000      -9.801327      -266.7077
   2   1.0000      -9.801270      -266.7061
   3   1.0000      -9.801078      -266.7009
   4   1.0000      -9.763067      -265.6666
   5   1.0000      -9.763060      -265.6664
   6   1.0000      -9.763037      -265.6657
   7   1.0000      -9.763009      -265.6650
   8   1.0000      -9.762937      -265.6630
   9   1.0000      -9.762819      -265.6598
  10   1.0000      -9.756252      -265.4811
  11   1.0000      -9.756049      -265.4756
  12   1.0000      -9.755780      -265.4683
  13   1.0000      -9.749058      -265.2854
  14   1.0000      -9.748856      -265.2799
  15   1.0000      -9.748707      -265.2758
  16   1.0000      -9.748313      -265.2651
  17   1.0000      -9.748264      -265.2638
  18   1.0000      -9.748231      -265.2629
  19   1.0000      -9.739913      -265.0365
  20   1.0000      -9.739437      -265.0236
  21   1.0000      -9.739134      -265.0153
  22   1.0000      -9.735669      -264.9210
  23   1.0000      -9.735193      -264.9081
  24   1.0000      -9.735087      -264.9052
  25   1.0000      -9.726070      -264.6598
  26   1.0000      -9.725809      -264.6527
  27   1.0000      -9.725409      -264.6418
  28   1.0000      -0.729068       -19.8390
  29   1.0000      -0.664501       -18.0820
  30   1.0000      -0.650460       -17.6999
  31   1.0000      -0.650456       -17.6998
  32   1.0000      -0.608905       -16.5692
  33   1.0000      -0.597709       -16.2645
  34   1.0000      -0.597572       -16.2608
  35   1.0000      -0.579761       -15.7761
  36   1.0000      -0.579669       -15.7736
  37   1.0000      -0.545179       -14.8351
  38   1.0000      -0.520873       -14.1737
  39   1.0000      -0.520841       -14.1728
  40   1.0000      -0.518309       -14.1039
  41   1.0000      -0.512763       -13.9530
  42   1.0000      -0.512438       -13.9442
  43   1.0000      -0.495603       -13.4860
  44   1.0000      -0.444050       -12.0832
  45   1.0000      -0.443979       -12.0813
  46   1.0000      -0.423670       -11.5286
  47   1.0000      -0.404519       -11.0075
  48   1.0000      -0.404494       -11.0068
  49   1.0000      -0.399220       -10.8633
  50   1.0000      -0.395552       -10.7635
  51   1.0000      -0.381053       -10.3690
  52   1.0000      -0.381012       -10.3679
  53   1.0000      -0.357234        -9.7208
  54   1.0000      -0.356464        -9.6999
  55   1.0000      -0.356322        -9.6960
  56   1.0000      -0.341600        -9.2954
  57   1.0000      -0.310370        -8.4456
  58   1.0000      -0.307452        -8.3662
  59   1.0000      -0.307361        -8.3637
  60   1.0000      -0.297541        -8.0965
  61   1.0000      -0.297495        -8.0953
  62   1.0000      -0.280704        -7.6384
  63   1.0000      -0.277377        -7.5478
  64   1.0000      -0.277341        -7.5468
  65   1.0000      -0.273964        -7.4549
  66   1.0000      -0.273935        -7.4542
  67   1.0000      -0.240938        -6.5562
  68   1.0000      -0.240880        -6.5547
  69   1.0000      -0.236288        -6.4297
  70   1.0000      -0.228889        -6.2284
  71   1.0000      -0.225368        -6.1326
  72   1.0000      -0.224808        -6.1173
  73   1.0000      -0.224720        -6.1149
  74   1.0000      -0.212088        -5.7712
  75   1.0000      -0.212059        -5.7704
  76   1.0000      -0.209908        -5.7119
  77   1.0000      -0.195780        -5.3274
  78   1.0000      -0.187679        -5.1070
  79   1.0000      -0.187659        -5.1065
  80   1.0000      -0.178329        -4.8526
  81   1.0000      -0.178308        -4.8520
  82   1.0000      -0.171087        -4.6555
  83   1.0000      -0.166022        -4.5177
  84   1.0000      -0.165982        -4.5166
  85   1.0000      -0.159836        -4.3494
  86   1.0000      -0.156074        -4.2470
  87   1.0000      -0.154827        -4.2131
  88   1.0000      -0.154742        -4.2107
  89   1.0000      -0.144798        -3.9401
  90   1.0000      -0.144780        -3.9397
  91   1.0000      -0.132021        -3.5925
  92   1.0000      -0.117122        -3.1870
  93   1.0000      -0.117033        -3.1846
  94   1.0000      -0.093212        -2.5364
  95   1.0000      -0.093173        -2.5354
  96   1.0000      -0.090778        -2.4702
  97   1.0000      -0.060874        -1.6565
  98   1.0000      -0.058564        -1.5936
  99   1.0000      -0.056461        -1.5364
 100   1.0000      -0.056143        -1.5277
 101   1.0000       0.023445         0.6380
 102   0.0000       0.083057         2.2601
 103   0.0000       0.083875         2.2823
 104   0.0000       0.097767         2.6604
 105   0.0000       0.117934         3.2092
 106   0.0000       0.119154         3.2424

MULLIKEN ATOMIC CHARGES AND SPIN POPULATIONS
--------------------------------------------
   0 C :    0.897913    0.357125
   1 C :   -0.341418    0.005890
   2 C :   -0.385307   -0.029660
   3 C :   -0.365635   -0.032848
   4 C :   -0.358470   -0.030200
   5 C :   -0.331027   -0.015510
   6 C :   -0.340572   -0.015175
   7 C :   -0.360090   -0.011721
   8 C :   -0.359012   -0.011515
   9 C :   -0.347965   -0.014504
  10 C :   -0.331992   -0.014856
  11 C :   -0.173413    0.009359
  12 C :   -0.162342    0.009406
  13 C :   -0.168285    0.009644
  14 C :   -0.338600    0.040071
  15 C :   -0.333799    0.035000
  16 C :   -0.356575    0.047270
  17 C :   -0.315584    0.103685
  18 C :   -0.331583    0.109963
  19 C :   -0.298868    0.098202
  20 C :   -0.292804    0.093554
  21 C :   -0.301983    0.098325
  22 C :   -0.327719    0.106463
  23 C :    0.888414    0.347419
  24 C :    0.922095    0.327128
  25 C :   -0.360698    0.004793
  26 C :   -0.319333    0.003357
  27 N :    0.392965   -0.017244
  28 H :    0.150431    0.000510
  29 H :    0.075828   -0.000659
  30 H :    0.160445   -0.001403
  31 H :    0.078429   -0.001898
  32 H :    0.070667   -0.001335
  33 H :    0.161949   -0.001208
  34 H :    0.156913   -0.001246
  35 H :    0.068266   -0.001746
  36 H :    0.141767   -0.000557
  37 H :    0.068200   -0.000592
  38 H :    0.070291   -0.000588
  39 H :    0.150770   -0.000693
  40 H :    0.074163   -0.000541
  41 H :    0.158058   -0.001298
  42 H :    0.154534   -0.001174
  43 H :    0.079876   -0.000857
  44 H :    0.075843   -0.000882
  45 H :    0.153209   -0.001109
  46 H :    0.146006   -0.000875
  47 H :    0.069871   -0.000421
  48 H :    0.090250    0.000259
  49 H :    0.084044    0.000244
  50 H :    0.088890    0.000229
  51 H :    0.055520    0.041924
  52 H :    0.056717    0.043303
  53 H :    0.053296    0.042487
  54 H :    0.058944    0.046349
  55 H :    0.057942    0.046144
  56 H :    0.057587    0.045764
  57 H :    0.051788    0.046465
  58 H :    0.053587    0.046595
  59 H :    0.061771    0.045306
  60 H :    0.081654   -0.000621
  61 H :    0.159451    0.000615
  62 H :    0.151375    0.000712
  63 H :    0.073355   -0.000627
Sum of atomic charges         :   -1.0000000

LOEWDIN ATOMIC CHARGES AND SPIN POPULATIONS
-------------------------------------------
   0 C :   -0.104222    0.459704
   1 C :   -0.015897    0.010888
   2 C :   -0.022695    0.009031
   3 C :   -0.021840    0.008673
   4 C :   -0.020505    0.009078
   5 C :   -0.009672    0.009990
   6 C :   -0.010696    0.010099
   7 C :   -0.010772    0.010018
   8 C :   -0.012696    0.010023
   9 C :   -0.012116    0.009931
  10 C :   -0.009448    0.009996
  11 C :   -0.072453    0.001248
  12 C :   -0.071035    0.001307
  13 C :   -0.071877    0.001262
  14 C :   -0.107792    0.026113
  15 C :   -0.108402    0.026049
  16 C :   -0.108753    0.027084
  17 C :   -0.106437    0.037758
  18 C :   -0.106833    0.038122
  19 C :   -0.105111    0.036571
  20 C :   -0.104215    0.036364
  21 C :   -0.105293    0.037021
  22 C :   -0.105903    0.037035
  23 C :   -0.104749    0.458316
  24 C :   -0.103853    0.454260
  25 C :   -0.017545    0.010675
  26 C :   -0.015594    0.010469
  27 N :   -0.011151    0.007030
  28 H :   -0.010939    0.000543
  29 H :    0.025143   -0.000354
  30 H :   -0.009235    0.000442
  31 H :    0.024845   -0.000297
  32 H :    0.024512   -0.000276
  33 H :   -0.008832    0.000445
  34 H :   -0.010011    0.000442
  35 H :    0.024032   -0.000302
  36 H :   -0.014233    0.000510
  37 H :    0.028926    0.000239
  38 H :    0.028834    0.000251
  39 H :   -0.015927    0.000526
  40 H :    0.028961    0.000236
  41 H :   -0.016133    0.000527
  42 H :   -0.013775    0.000521
  43 H :    0.030122    0.000228
  44 H :    0.029527    0.000230
  45 H :   -0.015560    0.000524
  46 H :   -0.014790    0.000520
  47 H :    0.029091    0.000256
  48 H :    0.033814    0.000180
  49 H :    0.033286    0.000185
  50 H :    0.033549    0.000171
  51 H :    0.044023    0.019391
  52 H :    0.043822    0.019630
  53 H :    0.043739    0.019306
  54 H :    0.045270    0.022006
  55 H :    0.045240    0.021861
  56 H :    0.045442    0.021913
  57 H :    0.044846    0.021938
  58 H :    0.044982    0.022013
  59 H :    0.045723    0.021687
  60 H :    0.025732   -0.000358
  61 H :   -0.010396    0.000539
  62 H :   -0.011183    0.000555
  63 H :    0.025106   -0.000344

  Mayer bond orders larger than 0.100000
B(  0-C , 15-C ) :   1.0816 B(  0-C , 20-C ) :   1.0605 B(  0-C , 21-C ) :   1.0699
B(  0-C , 23-C ) :   0.1942 B(  0-C , 24-C ) :   0.1985 B(  0-C , 27-N ) :   0.1548
B(  1-C ,  4-C ) :   0.1440 B(  1-C , 15-C ) :   0.9616 B(  1-C , 16-C ) :   0.9594
B(  1-C , 28-H ) :   0.7772 B(  1-C , 29-H ) :   0.9849 B(  2-C , 17-C ) :   0.9843
B(  2-C , 21-C ) :   0.9797 B(  2-C , 25-C ) :   0.1498 B(  2-C , 30-H ) :   0.7748
B(  2-C , 31-H ) :   0.9803 B(  3-C , 19-C ) :   0.9844 B(  3-C , 22-C ) :   0.9776
B(  3-C , 26-C ) :   0.1527 B(  3-C , 32-H ) :   0.9729 B(  3-C , 33-H ) :   0.7709
B(  4-C , 18-C ) :   0.9776 B(  4-C , 20-C ) :   0.9825 B(  4-C , 34-H ) :   0.7762
B(  4-C , 35-H ) :   0.9807 B(  5-C ,  7-C ) :   0.1464 B(  5-C , 13-C ) :   0.9491
B(  5-C , 17-C ) :   0.9651 B(  5-C , 36-H ) :   0.7674 B(  5-C , 37-H ) :   0.9768
B(  6-C , 10-C ) :   0.1436 B(  6-C , 11-C ) :   0.9474 B(  6-C , 18-C ) :   0.9665
B(  6-C , 38-H ) :   0.9756 B(  6-C , 39-H ) :   0.7712 B(  7-C , 12-C ) :   0.9524
B(  7-C , 19-C ) :   0.9657 B(  7-C , 40-H ) :   0.9797 B(  7-C , 41-H ) :   0.7693
B(  8-C ,  9-C ) :   0.1512 B(  8-C , 11-C ) :   0.9607 B(  8-C , 20-C ) :   0.9662
B(  8-C , 42-H ) :   0.7632 B(  8-C , 43-H ) :   0.9731 B(  9-C , 13-C ) :   0.9598
B(  9-C , 21-C ) :   0.9618 B(  9-C , 44-H ) :   0.9745 B(  9-C , 45-H ) :   0.7649
B( 10-C , 12-C ) :   0.9502 B( 10-C , 22-C ) :   0.9699 B( 10-C , 46-H ) :   0.7697
B( 10-C , 47-H ) :   0.9741 B( 11-C , 12-C ) :   0.1090 B( 11-C , 13-C ) :   0.1068
B( 11-C , 27-N ) :   1.1111 B( 11-C , 48-H ) :   1.0111 B( 12-C , 13-C ) :   0.1089
B( 12-C , 27-N ) :   1.0931 B( 12-C , 49-H ) :   1.0176 B( 13-C , 27-N ) :   1.1026
B( 13-C , 50-H ) :   1.0108 B( 14-C , 17-C ) :   0.2207 B( 14-C , 19-C ) :   0.2159
B( 14-C , 23-C ) :   1.0690 B( 14-C , 25-C ) :   0.9645 B( 14-C , 26-C ) :   0.9603
B( 14-C , 51-H ) :   1.0161 B( 15-C , 20-C ) :   0.2144 B( 15-C , 21-C ) :   0.2157
B( 15-C , 25-C ) :   0.9630 B( 15-C , 52-H ) :   1.0047 B( 16-C , 18-C ) :   0.2300
B( 16-C , 22-C ) :   0.2305 B( 16-C , 24-C ) :   1.0548 B( 16-C , 26-C ) :   0.9579
B( 16-C , 53-H ) :   1.0287 B( 17-C , 19-C ) :   0.2142 B( 17-C , 23-C ) :   1.0586
B( 17-C , 54-H ) :   1.0072 B( 18-C , 22-C ) :   0.2191 B( 18-C , 24-C ) :   1.0443
B( 18-C , 55-H ) :   1.0183 B( 19-C , 23-C ) :   1.0674 B( 19-C , 56-H ) :   0.9979
B( 20-C , 21-C ) :   0.2125 B( 20-C , 57-H ) :   0.9987 B( 21-C , 58-H ) :   0.9997
B( 22-C , 24-C ) :   1.0514 B( 22-C , 59-H ) :   1.0107 B( 23-C , 24-C ) :   0.1922
B( 23-C , 27-N ) :   0.1596 B( 24-C , 27-N ) :   0.1614 B( 25-C , 60-H ) :   0.9808
B( 25-C , 61-H ) :   0.7747 B( 26-C , 62-H ) :   0.7727 B( 26-C , 63-H ) :   0.9789
B( 28-H , 34-H ) :   0.2261 B( 30-H , 61-H ) :   0.2256 B( 33-H , 62-H ) :   0.2246
B( 36-H , 41-H ) :   0.2448 B( 39-H , 46-H ) :   0.2435 B( 42-H , 45-H ) :   0.2449

FINAL SINGLE POINT ENERGY     -1103.167854223639

DIPOLE MOMENT
-------------
                                X             Y             Z
Electronic contribution:     -0.00488      -0.00091       1.06704
Nuclear contribution   :     -0.00145      -0.00352      -0.32886
                        -----------------------------------------
Total Dipole Moment    :     -0.00634      -0.00444       0.73818
                        -----------------------------------------
Magnitude (a.u.)       :      0.73822
Magnitude (Debye)      :      1.87640

Rotational constants in cm-1:     0.009246     0.009141     0.009141
Rotational constants in MHz :   277.183097   274.048600   274.045280

                             ****ORCA TERMINATED NORMALLY****
TOTAL RUN TIME: 0 days 0 hours 4 minutes 39 seconds 19 msec
