                         Program Version 4.2.1 -  RELEASE  -
|  1>
|  2> # Use EPR-II is a special basis set for epr, autoaux creates a large auxiliary basis set
|  3> !PBE EPR-II AUTOAUX RIJCOSX
|  4>
|  5> # use original (unoptimized) cluster xyz
|  6> *xyzfile -1 3 nv_cluster.xyz
|  7>
|  8> # Parallelization
|  9> %PAL NPROCS 72 END
| 10>
| 11> # ZFS calculation
| 12> %EPRNMR DTENSOR SSANDSO
| 13>     DSS     UNO
| 14>     DSOC    CP
| 15> END
| 16>
| 17>                          ****END OF INPUT****

CARTESIAN COORDINATES (ANGSTROEM)
---------------------------------
  C      8.091600    6.206040    8.091600
  C      8.028270    8.028270    9.810990
  C      9.804780    6.248830    6.248830
  C      6.248830    9.804780    6.248830
  C      6.248830    6.248830    9.804780
  C      8.013620    6.253760    4.476130
  C      4.476130    6.253760    8.013620
  C      6.253760    8.013620    4.476130
  C      6.253760    4.476130    8.013620
  C      8.013620    4.476130    6.253760
  C      4.476130    8.013620    6.253760
  C      5.355250    5.355250    7.096690
  C      5.355250    7.096690    5.355250
  C      7.096690    5.355250    5.355250
  C      8.917750    8.917750    7.130610
  C      8.917750    7.130610    8.917750
  C      7.130610    8.917750    8.917750
  C      8.907460    7.147320    5.371140
  C      5.371140    7.147320    8.907460
  C      7.147320    8.907460    5.371140
  C      7.147320    5.371140    8.907460
  C      8.907460    5.371140    7.147320
  C      5.371140    8.907460    7.147320
  C      8.091600    8.091600    6.206040
  C      6.206040    8.091600    8.091600
  C      9.810990    8.028270    8.028270
  C      8.028270    9.810990    8.028270
  N      6.164130    6.164130    6.164130
  H      7.413360    7.413360   10.434410
  H      8.648950    8.648950   10.422890
  H     10.436790    6.859340    6.859340
  H     10.413920    5.626790    5.626790
  H      5.623980   10.408140    5.623980
  H      6.856400   10.442440    6.856400
  H      6.859340    6.859340   10.436790
  H      5.626790    5.626790   10.413920
  H      7.405680    6.875000    3.852130
  H      8.638760    5.628850    3.873150
  H      3.864670    5.633050    8.634700
  H      3.860530    6.879190    7.401440
  H      5.633050    8.634700    3.864670
  H      6.879190    7.401440    3.860530
  H      6.875000    3.852130    7.405680
  H      5.628850    3.873150    8.638760
  H      8.634700    3.864670    5.633050
  H      7.401440    3.860530    6.879190
  H      3.852130    7.405680    6.875000
  H      3.873150    8.638760    5.628850
  H      4.732430    4.732430    6.489170
  H      4.732430    6.489170    4.732430
  H      6.489170    4.732430    4.732430
  H      9.540160    9.540160    6.522250
  H      9.540160    6.522250    9.540160
  H      6.522250    9.540160    9.540160
  H      9.525800    7.755210    4.744220
  H      4.744220    7.755210    9.525800
  H      7.755210    9.525800    4.744220
  H      7.755210    4.744220    9.525800
  H      9.525800    4.744220    7.755210
  H      4.744220    9.525800    7.755210
  H     10.423080    8.648860    8.648860
  H     10.434230    7.413260    7.413260
  H      7.413360   10.434410    7.413360
  H      8.648950   10.422890    8.648950

 Total Charge           Charge          ....   -1
 Multiplicity           Mult            ....    3
 Number of Electrons    NEL             ....  206
 Basis Dimension        Dim             ....  728

ORBITAL ENERGIES
----------------
                 SPIN UP ORBITALS
  NO   OCC          E(Eh)            E(eV)
   0   1.0000     -13.856750      -377.0613
   1   1.0000      -9.803252      -266.7601
   2   1.0000      -9.803221      -266.7592
   3   1.0000      -9.803220      -266.7592
   4   1.0000      -9.765075      -265.7212
   5   1.0000      -9.765012      -265.7195
   6   1.0000      -9.765012      -265.7195
   7   1.0000      -9.764951      -265.7178
   8   1.0000      -9.764890      -265.7162
   9   1.0000      -9.764885      -265.7160
  10   1.0000      -9.757893      -265.5258
  11   1.0000      -9.757850      -265.5246
  12   1.0000      -9.757850      -265.5246
  13   1.0000      -9.751071      -265.3401
  14   1.0000      -9.751022      -265.3388
  15   1.0000      -9.751004      -265.3383
  16   1.0000      -9.750413      -265.3222
  17   1.0000      -9.750362      -265.3208
  18   1.0000      -9.750346      -265.3204
  19   1.0000      -9.741626      -265.0831
  20   1.0000      -9.741279      -265.0737
  21   1.0000      -9.741273      -265.0735
  22   1.0000      -9.738181      -264.9894
  23   1.0000      -9.738170      -264.9891
  24   1.0000      -9.738170      -264.9891
  25   1.0000      -9.737760      -264.9779
  26   1.0000      -9.737752      -264.9777
  27   1.0000      -9.737646      -264.9748
  28   1.0000      -0.731151       -19.8956
  29   1.0000      -0.669527       -18.2187
  30   1.0000      -0.654180       -17.8011
  31   1.0000      -0.654167       -17.8008
  32   1.0000      -0.611069       -16.6280
  33   1.0000      -0.599614       -16.3163
  34   1.0000      -0.599456       -16.3120
  35   1.0000      -0.584207       -15.8971
  36   1.0000      -0.584192       -15.8967
  37   1.0000      -0.547047       -14.8859
  38   1.0000      -0.523024       -14.2322
  39   1.0000      -0.522982       -14.2311
  40   1.0000      -0.520454       -14.1623
  41   1.0000      -0.517360       -14.0781
  42   1.0000      -0.517180       -14.0732
  43   1.0000      -0.503576       -13.7030
  44   1.0000      -0.445955       -12.1351
  45   1.0000      -0.445877       -12.1329
  46   1.0000      -0.425282       -11.5725
  47   1.0000      -0.406708       -11.0671
  48   1.0000      -0.406699       -11.0668
  49   1.0000      -0.401727       -10.9315
  50   1.0000      -0.399290       -10.8652
  51   1.0000      -0.385829       -10.4989
  52   1.0000      -0.385759       -10.4970
  53   1.0000      -0.360138        -9.7999
  54   1.0000      -0.359411        -9.7801
  55   1.0000      -0.359359        -9.7787
  56   1.0000      -0.348430        -9.4813
  57   1.0000      -0.314453        -8.5567
  58   1.0000      -0.310472        -8.4484
  59   1.0000      -0.310424        -8.4471
  60   1.0000      -0.302961        -8.2440
  61   1.0000      -0.302915        -8.2427
  62   1.0000      -0.283760        -7.7215
  63   1.0000      -0.280677        -7.6376
  64   1.0000      -0.280619        -7.6360
  65   1.0000      -0.277305        -7.5458
  66   1.0000      -0.277302        -7.5458
  67   1.0000      -0.244402        -6.6505
  68   1.0000      -0.244396        -6.6504
  69   1.0000      -0.239780        -6.5247
  70   1.0000      -0.232830        -6.3356
  71   1.0000      -0.229903        -6.2560
  72   1.0000      -0.227927        -6.2022
  73   1.0000      -0.227899        -6.2014
  74   1.0000      -0.213940        -5.8216
  75   1.0000      -0.213875        -5.8198
  76   1.0000      -0.211655        -5.7594
  77   1.0000      -0.198646        -5.4054
  78   1.0000      -0.192243        -5.2312
  79   1.0000      -0.192238        -5.2311
  80   1.0000      -0.180555        -4.9132
  81   1.0000      -0.180551        -4.9131
  82   1.0000      -0.173012        -4.7079
  83   1.0000      -0.168088        -4.5739
  84   1.0000      -0.168063        -4.5732
  85   1.0000      -0.162383        -4.4187
  86   1.0000      -0.160361        -4.3636
  87   1.0000      -0.157600        -4.2885
  88   1.0000      -0.157593        -4.2883
  89   1.0000      -0.148492        -4.0407
  90   1.0000      -0.148424        -4.0388
  91   1.0000      -0.136717        -3.7203
  92   1.0000      -0.121418        -3.3039
  93   1.0000      -0.121410        -3.3037
  94   1.0000      -0.097032        -2.6404
  95   1.0000      -0.097028        -2.6403
  96   1.0000      -0.094053        -2.5593
  97   1.0000      -0.078925        -2.1477
  98   1.0000      -0.060265        -1.6399
  99   1.0000      -0.058034        -1.5792
 100   1.0000      -0.057715        -1.5705
 101   1.0000       0.000602         0.0164
 102   1.0000       0.045047         1.2258
 103   1.0000       0.045053         1.2259
 104   0.0000       0.095658         2.6030
 105   0.0000       0.112185         3.0527
 106   0.0000       0.115810         3.1514
 107   0.0000       0.115826         3.1518
 108   0.0000       0.122568         3.3352

                 SPIN DOWN ORBITALS
  NO   OCC          E(Eh)            E(eV)
   0   1.0000     -13.856709      -377.0602
   1   1.0000      -9.803209      -266.7589
   2   1.0000      -9.803178      -266.7580
   3   1.0000      -9.803177      -266.7580
   4   1.0000      -9.765306      -265.7275
   5   1.0000      -9.765243      -265.7258
   6   1.0000      -9.765243      -265.7258
   7   1.0000      -9.765182      -265.7241
   8   1.0000      -9.765121      -265.7224
   9   1.0000      -9.765116      -265.7223
  10   1.0000      -9.758288      -265.5365
  11   1.0000      -9.758245      -265.5353
  12   1.0000      -9.758244      -265.5353
  13   1.0000      -9.750967      -265.3373
  14   1.0000      -9.750918      -265.3360
  15   1.0000      -9.750901      -265.3355
  16   1.0000      -9.750309      -265.3194
  17   1.0000      -9.750258      -265.3180
  18   1.0000      -9.750243      -265.3176
  19   1.0000      -9.741476      -265.0790
  20   1.0000      -9.741128      -265.0696
  21   1.0000      -9.741122      -265.0694
  22   1.0000      -9.737570      -264.9728
  23   1.0000      -9.737562      -264.9725
  24   1.0000      -9.737456      -264.9697
  25   1.0000      -9.729572      -264.7551
  26   1.0000      -9.729562      -264.7548
  27   1.0000      -9.729561      -264.7548
  28   1.0000      -0.730523       -19.8785
  29   1.0000      -0.666564       -18.1381
  30   1.0000      -0.652314       -17.7504
  31   1.0000      -0.652302       -17.7500
  32   1.0000      -0.610613       -16.6156
  33   1.0000      -0.599151       -16.3037
  34   1.0000      -0.598992       -16.2994
  35   1.0000      -0.581497       -15.8233
  36   1.0000      -0.581490       -15.8231
  37   1.0000      -0.546448       -14.8696
  38   1.0000      -0.522335       -14.2135
  39   1.0000      -0.522292       -14.2123
  40   1.0000      -0.519795       -14.1443
  41   1.0000      -0.514168       -13.9912
  42   1.0000      -0.513992       -13.9864
  43   1.0000      -0.497305       -13.5324
  44   1.0000      -0.445330       -12.1181
  45   1.0000      -0.445254       -12.1160
  46   1.0000      -0.425070       -11.5667
  47   1.0000      -0.405956       -11.0466
  48   1.0000      -0.405946       -11.0464
  49   1.0000      -0.400656       -10.9024
  50   1.0000      -0.397323       -10.8117
  51   1.0000      -0.382866       -10.4183
  52   1.0000      -0.382793       -10.4163
  53   1.0000      -0.358939        -9.7672
  54   1.0000      -0.357880        -9.7384
  55   1.0000      -0.357828        -9.7370
  56   1.0000      -0.343543        -9.3483
  57   1.0000      -0.311987        -8.4896
  58   1.0000      -0.308927        -8.4063
  59   1.0000      -0.308877        -8.4050
  60   1.0000      -0.299261        -8.1433
  61   1.0000      -0.299221        -8.1422
  62   1.0000      -0.282413        -7.6848
  63   1.0000      -0.278782        -7.5861
  64   1.0000      -0.278735        -7.5848
  65   1.0000      -0.275640        -7.5005
  66   1.0000      -0.275634        -7.5004
  67   1.0000      -0.242689        -6.6039
  68   1.0000      -0.242682        -6.6037
  69   1.0000      -0.237836        -6.4719
  70   1.0000      -0.230644        -6.2762
  71   1.0000      -0.226871        -6.1735
  72   1.0000      -0.226411        -6.1610
  73   1.0000      -0.226380        -6.1601
  74   1.0000      -0.213575        -5.8117
  75   1.0000      -0.213509        -5.8099
  76   1.0000      -0.211414        -5.7529
  77   1.0000      -0.197384        -5.3711
  78   1.0000      -0.189292        -5.1509
  79   1.0000      -0.189288        -5.1508
  80   1.0000      -0.179578        -4.8866
  81   1.0000      -0.179575        -4.8865
  82   1.0000      -0.172666        -4.6985
  83   1.0000      -0.167319        -4.5530
  84   1.0000      -0.167290        -4.5522
  85   1.0000      -0.161075        -4.3831
  86   1.0000      -0.157786        -4.2936
  87   1.0000      -0.156176        -4.2498
  88   1.0000      -0.156171        -4.2496
  89   1.0000      -0.146390        -3.9835
  90   1.0000      -0.146320        -3.9816
  91   1.0000      -0.133657        -3.6370
  92   1.0000      -0.118642        -3.2284
  93   1.0000      -0.118635        -3.2282
  94   1.0000      -0.094691        -2.5767
  95   1.0000      -0.094690        -2.5766
  96   1.0000      -0.092249        -2.5102
  97   1.0000      -0.062629        -1.7042
  98   1.0000      -0.059767        -1.6264
  99   1.0000      -0.057642        -1.5685
 100   1.0000      -0.057323        -1.5598
 101   1.0000       0.021307         0.5798
 102   0.0000       0.080242         2.1835
 103   0.0000       0.080248         2.1836
 104   0.0000       0.097410         2.6506
 105   0.0000       0.115714         3.1487
 106   0.0000       0.119100         3.2409

MULLIKEN ATOMIC CHARGES AND SPIN POPULATIONS
--------------------------------------------
   0 C :    0.864173    0.327216
   1 C :   -0.332428    0.004597
   2 C :   -0.349978   -0.035574
   3 C :   -0.348024   -0.035614
   4 C :   -0.349997   -0.035576
   5 C :   -0.358044   -0.016777
   6 C :   -0.363368   -0.016749
   7 C :   -0.363770   -0.016756
   8 C :   -0.358055   -0.016773
   9 C :   -0.363392   -0.016741
  10 C :   -0.358436   -0.016789
  11 C :   -0.134479    0.008173
  12 C :   -0.134402    0.008189
  13 C :   -0.134471    0.008171
  14 C :   -0.344866    0.041848
  15 C :   -0.344972    0.041853
  16 C :   -0.344851    0.041848
  17 C :   -0.327454    0.116390
  18 C :   -0.327732    0.116360
  19 C :   -0.327455    0.116371
  20 C :   -0.327428    0.116356
  21 C :   -0.327711    0.116317
  22 C :   -0.327161    0.116413
  23 C :    0.864249    0.327168
  24 C :    0.864231    0.327163
  25 C :   -0.332506    0.004594
  26 C :   -0.333064    0.004607
  27 N :    0.320688   -0.013663
  28 H :    0.155363    0.000066
  29 H :    0.078311   -0.000453
  30 H :    0.156438   -0.001293
  31 H :    0.073812   -0.001664
  32 H :    0.073845   -0.001673
  33 H :    0.153765   -0.001283
  34 H :    0.156478   -0.001293
  35 H :    0.073812   -0.001665
  36 H :    0.152975   -0.001068
  37 H :    0.085591   -0.000645
  38 H :    0.085670   -0.000632
  39 H :    0.160482   -0.001143
  40 H :    0.085712   -0.000632
  41 H :    0.160507   -0.001149
  42 H :    0.152980   -0.001070
  43 H :    0.085580   -0.000645
  44 H :    0.085661   -0.000631
  45 H :    0.160490   -0.001145
  46 H :    0.153000   -0.001074
  47 H :    0.085627   -0.000645
  48 H :    0.084762    0.000248
  49 H :    0.084757    0.000245
  50 H :    0.084761    0.000248
  51 H :    0.063222    0.042385
  52 H :    0.063252    0.042379
  53 H :    0.063218    0.042384
  54 H :    0.068660    0.045011
  55 H :    0.068714    0.044986
  56 H :    0.068644    0.045002
  57 H :    0.068671    0.045008
  58 H :    0.068730    0.044982
  59 H :    0.068587    0.045029
  60 H :    0.078308   -0.000452
  61 H :    0.155451    0.000066
  62 H :    0.156539    0.000058
  63 H :    0.078327   -0.000461
Sum of atomic charges         :   -1.0000000

LOEWDIN ATOMIC CHARGES AND SPIN POPULATIONS
-------------------------------------------
   0 C :   -0.103570    0.451468
   1 C :   -0.016117    0.010578
   2 C :   -0.020337    0.009002
   3 C :   -0.020567    0.009007
   4 C :   -0.020352    0.009002
   5 C :   -0.012811    0.010030
   6 C :   -0.013221    0.010007
   7 C :   -0.013221    0.010014
   8 C :   -0.012812    0.010028
   9 C :   -0.013221    0.010005
  10 C :   -0.012811    0.010037
  11 C :   -0.070875    0.001374
  12 C :   -0.070868    0.001374
  13 C :   -0.070874    0.001374
  14 C :   -0.110145    0.027483
  15 C :   -0.110123    0.027490
  16 C :   -0.110143    0.027484
  17 C :   -0.109224    0.039965
  18 C :   -0.109307    0.039938
  19 C :   -0.109270    0.039942
  20 C :   -0.109205    0.039958
  21 C :   -0.109287    0.039931
  22 C :   -0.109187    0.039970
  23 C :   -0.103592    0.451463
  24 C :   -0.103591    0.451467
  25 C :   -0.016113    0.010578
  26 C :   -0.016584    0.010583
  27 N :   -0.012709    0.006698
  28 H :   -0.010653    0.000533
  29 H :    0.025940   -0.000325
  30 H :   -0.009516    0.000428
  31 H :    0.024897   -0.000276
  32 H :    0.025066   -0.000271
  33 H :   -0.008726    0.000423
  34 H :   -0.009522    0.000428
  35 H :    0.024896   -0.000276
  36 H :   -0.013255    0.000524
  37 H :    0.030665    0.000252
  38 H :    0.030354    0.000249
  39 H :   -0.014902    0.000531
  40 H :    0.030331    0.000249
  41 H :   -0.014898    0.000531
  42 H :   -0.013265    0.000523
  43 H :    0.030661    0.000252
  44 H :    0.030350    0.000249
  45 H :   -0.014911    0.000530
  46 H :   -0.013252    0.000523
  47 H :    0.030641    0.000252
  48 H :    0.033637    0.000171
  49 H :    0.033643    0.000170
  50 H :    0.033637    0.000171
  51 H :    0.045396    0.019123
  52 H :    0.045402    0.019125
  53 H :    0.045396    0.019123
  54 H :    0.046963    0.021687
  55 H :    0.046947    0.021687
  56 H :    0.046957    0.021687
  57 H :    0.046966    0.021686
  58 H :    0.046951    0.021686
  59 H :    0.046972    0.021688
  60 H :    0.025934   -0.000324
  61 H :   -0.010674    0.000533
  62 H :   -0.010826    0.000534
  63 H :    0.025936   -0.000325

  Mayer bond orders larger than 0.100000
B(  0-C , 15-C ) :   1.0862 B(  0-C , 20-C ) :   1.0737 B(  0-C , 21-C ) :   1.0733
B(  0-C , 23-C ) :   0.2030 B(  0-C , 24-C ) :   0.2030 B(  0-C , 27-N ) :   0.1514
B(  1-C ,  4-C ) :   0.1459 B(  1-C , 15-C ) :   0.9635 B(  1-C , 16-C ) :   0.9635
B(  1-C , 28-H ) :   0.7776 B(  1-C , 29-H ) :   0.9813 B(  2-C , 17-C ) :   0.9767
B(  2-C , 21-C ) :   0.9768 B(  2-C , 25-C ) :   0.1460 B(  2-C , 30-H ) :   0.7784
B(  2-C , 31-H ) :   0.9785 B(  3-C , 19-C ) :   0.9771 B(  3-C , 22-C ) :   0.9769
B(  3-C , 26-C ) :   0.1456 B(  3-C , 32-H ) :   0.9785 B(  3-C , 33-H ) :   0.7804
B(  4-C , 18-C ) :   0.9768 B(  4-C , 20-C ) :   0.9767 B(  4-C , 34-H ) :   0.7785
B(  4-C , 35-H ) :   0.9785 B(  5-C ,  7-C ) :   0.1474 B(  5-C , 13-C ) :   0.9595
B(  5-C , 17-C ) :   0.9715 B(  5-C , 36-H ) :   0.7647 B(  5-C , 37-H ) :   0.9723
B(  6-C , 10-C ) :   0.1474 B(  6-C , 11-C ) :   0.9591 B(  6-C , 18-C ) :   0.9709
B(  6-C , 38-H ) :   0.9725 B(  6-C , 39-H ) :   0.7654 B(  7-C , 12-C ) :   0.9592
B(  7-C , 19-C ) :   0.9708 B(  7-C , 40-H ) :   0.9725 B(  7-C , 41-H ) :   0.7653
B(  8-C ,  9-C ) :   0.1474 B(  8-C , 11-C ) :   0.9595 B(  8-C , 20-C ) :   0.9715
B(  8-C , 42-H ) :   0.7647 B(  8-C , 43-H ) :   0.9723 B(  9-C , 13-C ) :   0.9591
B(  9-C , 21-C ) :   0.9709 B(  9-C , 44-H ) :   0.9725 B(  9-C , 45-H ) :   0.7654
B( 10-C , 12-C ) :   0.9596 B( 10-C , 22-C ) :   0.9713 B( 10-C , 46-H ) :   0.7646
B( 10-C , 47-H ) :   0.9723 B( 11-C , 27-N ) :   1.1238 B( 11-C , 48-H ) :   0.9982
B( 12-C , 27-N ) :   1.1239 B( 12-C , 49-H ) :   0.9981 B( 13-C , 27-N ) :   1.1238
B( 13-C , 50-H ) :   0.9982 B( 14-C , 17-C ) :   0.2187 B( 14-C , 19-C ) :   0.2188
B( 14-C , 23-C ) :   1.0862 B( 14-C , 25-C ) :   0.9634 B( 14-C , 26-C ) :   0.9635
B( 14-C , 51-H ) :   1.0140 B( 15-C , 20-C ) :   0.2187 B( 15-C , 21-C ) :   0.2188
B( 15-C , 25-C ) :   0.9636 B( 15-C , 52-H ) :   1.0140 B( 16-C , 18-C ) :   0.2188
B( 16-C , 22-C ) :   0.2187 B( 16-C , 24-C ) :   1.0862 B( 16-C , 26-C ) :   0.9635
B( 16-C , 53-H ) :   1.0140 B( 17-C , 19-C ) :   0.2227 B( 17-C , 23-C ) :   1.0740
B( 17-C , 54-H ) :   1.0080 B( 18-C , 22-C ) :   0.2227 B( 18-C , 24-C ) :   1.0736
B( 18-C , 55-H ) :   1.0080 B( 19-C , 23-C ) :   1.0736 B( 19-C , 56-H ) :   1.0079
B( 20-C , 21-C ) :   0.2227 B( 20-C , 57-H ) :   1.0079 B( 21-C , 58-H ) :   1.0080
B( 22-C , 24-C ) :   1.0740 B( 22-C , 59-H ) :   1.0079 B( 23-C , 24-C ) :   0.2030
B( 23-C , 27-N ) :   0.1514 B( 24-C , 27-N ) :   0.1514 B( 25-C , 60-H ) :   0.9813
B( 25-C , 61-H ) :   0.7775 B( 26-C , 62-H ) :   0.7800 B( 26-C , 63-H ) :   0.9814
B( 28-H , 34-H ) :   0.2210 B( 30-H , 61-H ) :   0.2211 B( 33-H , 62-H ) :   0.2188
B( 36-H , 41-H ) :   0.2404 B( 39-H , 46-H ) :   0.2404 B( 42-H , 45-H ) :   0.2404

FINAL SINGLE POINT ENERGY     -1103.169398550590

DIPOLE MOMENT
-------------
                                X             Y             Z
Electronic contribution:     -0.62875      -0.63198      -0.62863
Nuclear contribution   :      0.18839       0.19299       0.18822
                        -----------------------------------------
Total Dipole Moment    :     -0.44035      -0.43899      -0.44041
                        -----------------------------------------
Magnitude (a.u.)       :      0.76196
Magnitude (Debye)      :      1.93674

Rotational constants in cm-1:     0.009246     0.009141     0.009141
Rotational constants in MHz :   277.183012   274.048569   274.045290

                             ****ORCA TERMINATED NORMALLY****
TOTAL RUN TIME: 0 days 0 hours 5 minutes 1 seconds 201 msec
