                         Program Version 4.2.1 -  RELEASE  -
|  1> # Use EPR-II is a special basis set for epr, autoaux creates a large auxiliary basis
|  2> !PBE EPR-II AUTOAUX RIJCOSX
|  3>
|  4> # use original (unoptimized) cluster xyz
|  5> *xyzfile -1 3 nv.xyz
|  6>
|  7> # Parallelization
|  8> %PAL NPROCS 72 END
|  9>
| 10> # ZFS calculation
| 11> %EPRNMR DTENSOR SSANDSO
| 12>     DSS     UNO
| 13>     DSOC    CP
| 14> END
| 15>
| 16>                          ****END OF INPUT****

CARTESIAN COORDINATES (ANGSTROEM)
---------------------------------
  C     -0.200930    1.526441   -2.249811
  C      1.154793    0.886182   -4.258023
  C     -2.682397    1.111201   -2.199697
  C      0.378904   -2.878536   -2.199804
  C      2.303466    1.767494   -2.199700
  C     -2.479044   -0.333632   -0.144983
  C      2.480936    0.319254   -0.144986
  C     -0.963988   -2.308176   -0.145035
  C      0.950582    2.313736   -0.144933
  C     -1.516950    1.988932   -0.144931
  C      1.528460   -1.980093   -0.145037
  C      1.128072    0.865552    0.395617
  C      0.185565   -1.409729    0.395566
  C     -1.313633    0.544148    0.395618
  C     -1.157690   -0.888186   -3.737621
  C     -0.190449    1.446804   -3.737569
  C      1.348092   -0.558348   -3.737623
  C     -2.478322   -0.332787   -1.693673
  C      2.480017    0.319884   -1.693676
  C     -0.963025   -2.307645   -1.693726
  C      0.950912    2.312738   -1.693623
  C     -1.517013    1.987884   -1.693621
  C      1.527389   -1.979829   -1.693727
  C     -1.221438   -0.937140   -2.249865
  C      1.422340   -0.589137   -2.249867
  C     -1.344791    0.557160   -4.258021
  C      0.189945   -1.443033   -4.258075
  N      0.000000    0.000000    0.000000
  H      1.956961    1.501670   -3.907906
  H      1.149102    0.881844   -5.328003
  H     -2.698620    1.117945   -3.269544
  H     -3.611122    1.495906   -1.833101
  H      0.509781   -3.872798   -1.826663
  H      0.382106   -2.902869   -3.269519
  H      2.317389    1.778207   -3.269548
  H      3.101002    2.379428   -1.833106
  H     -2.358467   -1.336661    0.207581
  H     -3.407797    0.067870    0.203028
  H      3.278367    0.939352    0.207839
  H      2.615394   -0.683685    0.202756
  H     -0.825673   -3.308833    0.207753
  H     -1.899778   -1.923161    0.202744
  H      0.021655    2.710817    0.207668
  H      1.762679    2.917297    0.203076
  H     -2.452692    2.369465    0.207895
  H     -0.715613    2.606831    0.202848
  H      2.336814   -1.374171    0.207562
  H      1.645121   -2.985181    0.202936
  H      1.137988    0.873131    1.465539
  H      0.187200   -1.422140    1.465488
  H     -1.325170    0.548903    1.465541
  H     -1.954960   -1.499916   -4.105093
  H     -0.321598    2.443138   -4.105005
  H      2.276507   -0.942925   -4.105096
  H     -3.286092   -0.943260   -2.039696
  H      3.418249   -0.060762   -2.039701
  H     -1.761799   -2.929843   -2.039749
  H      0.826101    3.317536   -2.039611
  H     -1.656475    2.990753   -2.039609
  H      2.459965   -2.374128   -2.039752
  H     -1.338384    0.554529   -5.328007
  H     -2.278849    0.944074   -3.907684
  H      0.321899   -2.445486   -3.907994
  H      0.189005   -1.435900   -5.328055

 Total Charge           Charge          ....   -1
 Multiplicity           Mult            ....    3
 Number of Electrons    NEL             ....  206
 Basis Dimension        Dim             ....  728

ORBITAL ENERGIES
----------------
                 SPIN UP ORBITALS
  NO   OCC          E(Eh)            E(eV)
   0   1.0000     -13.855688      -377.0324
   1   1.0000      -9.801437      -266.7107
   2   1.0000      -9.801176      -266.7036
   3   1.0000      -9.801103      -266.7016
   4   1.0000      -9.762859      -265.6609
   5   1.0000      -9.762776      -265.6586
   6   1.0000      -9.762773      -265.6586
   7   1.0000      -9.762681      -265.6561
   8   1.0000      -9.762611      -265.6542
   9   1.0000      -9.762594      -265.6537
  10   1.0000      -9.755783      -265.4684
  11   1.0000      -9.755629      -265.4642
  12   1.0000      -9.755347      -265.4565
  13   1.0000      -9.749282      -265.2914
  14   1.0000      -9.748927      -265.2818
  15   1.0000      -9.748680      -265.2751
  16   1.0000      -9.748431      -265.2683
  17   1.0000      -9.748412      -265.2678
  18   1.0000      -9.748244      -265.2632
  19   1.0000      -9.739741      -265.0318
  20   1.0000      -9.739551      -265.0266
  21   1.0000      -9.739529      -265.0261
  22   1.0000      -9.735799      -264.9246
  23   1.0000      -9.735410      -264.9140
  24   1.0000      -9.735249      -264.9096
  25   1.0000      -9.734566      -264.8910
  26   1.0000      -9.734562      -264.8909
  27   1.0000      -9.734097      -264.8782
  28   1.0000      -0.729672       -19.8554
  29   1.0000      -0.667454       -18.1623
  30   1.0000      -0.652348       -17.7513
  31   1.0000      -0.652272       -17.7492
  32   1.0000      -0.609352       -16.5813
  33   1.0000      -0.598259       -16.2794
  34   1.0000      -0.597959       -16.2713
  35   1.0000      -0.582474       -15.8499
  36   1.0000      -0.582365       -15.8470
  37   1.0000      -0.545779       -14.8514
  38   1.0000      -0.521604       -14.1936
  39   1.0000      -0.521534       -14.1917
  40   1.0000      -0.518972       -14.1219
  41   1.0000      -0.515969       -14.0402
  42   1.0000      -0.515693       -14.0327
  43   1.0000      -0.501954       -13.6589
  44   1.0000      -0.444698       -12.1009
  45   1.0000      -0.444600       -12.0982
  46   1.0000      -0.423879       -11.5343
  47   1.0000      -0.405271       -11.0280
  48   1.0000      -0.405260       -11.0277
  49   1.0000      -0.400285       -10.8923
  50   1.0000      -0.397524       -10.8172
  51   1.0000      -0.384051       -10.4506
  52   1.0000      -0.383956       -10.4480
  53   1.0000      -0.358449        -9.7539
  54   1.0000      -0.357973        -9.7410
  55   1.0000      -0.357876        -9.7383
  56   1.0000      -0.346453        -9.4275
  57   1.0000      -0.312898        -8.5144
  58   1.0000      -0.308968        -8.4074
  59   1.0000      -0.308894        -8.4054
  60   1.0000      -0.301314        -8.1992
  61   1.0000      -0.301209        -8.1963
  62   1.0000      -0.282084        -7.6759
  63   1.0000      -0.279295        -7.6000
  64   1.0000      -0.279190        -7.5971
  65   1.0000      -0.275652        -7.5009
  66   1.0000      -0.275598        -7.4994
  67   1.0000      -0.242663        -6.6032
  68   1.0000      -0.242609        -6.6017
  69   1.0000      -0.238245        -6.4830
  70   1.0000      -0.231066        -6.2876
  71   1.0000      -0.228441        -6.2162
  72   1.0000      -0.226306        -6.1581
  73   1.0000      -0.226225        -6.1559
  74   1.0000      -0.212509        -5.7827
  75   1.0000      -0.212374        -5.7790
  76   1.0000      -0.210132        -5.7180
  77   1.0000      -0.197023        -5.3613
  78   1.0000      -0.190618        -5.1870
  79   1.0000      -0.190598        -5.1864
  80   1.0000      -0.179314        -4.8794
  81   1.0000      -0.179283        -4.8785
  82   1.0000      -0.171418        -4.6645
  83   1.0000      -0.166783        -4.5384
  84   1.0000      -0.166743        -4.5373
  85   1.0000      -0.161144        -4.3849
  86   1.0000      -0.158662        -4.3174
  87   1.0000      -0.156269        -4.2523
  88   1.0000      -0.156168        -4.2496
  89   1.0000      -0.146981        -3.9996
  90   1.0000      -0.146855        -3.9961
  91   1.0000      -0.135106        -3.6764
  92   1.0000      -0.119927        -3.2634
  93   1.0000      -0.119863        -3.2616
  94   1.0000      -0.095602        -2.6015
  95   1.0000      -0.095547        -2.6000
  96   1.0000      -0.092615        -2.5202
  97   1.0000      -0.077045        -2.0965
  98   1.0000      -0.059079        -1.6076
  99   1.0000      -0.056821        -1.5462
 100   1.0000      -0.056567        -1.5393
 101   1.0000       0.002056         0.0560
 102   1.0000       0.047295         1.2870
 103   1.0000       0.047604         1.2954
 104   0.0000       0.096937         2.6378
 105   0.0000       0.113803         3.0967
 106   0.0000       0.116323         3.1653
 107   0.0000       0.117259         3.1908
 108   0.0000       0.124598         3.3905

                 SPIN DOWN ORBITALS
  NO   OCC          E(Eh)            E(eV)
   0   1.0000     -13.855637      -377.0310
   1   1.0000      -9.801392      -266.7094
   2   1.0000      -9.801130      -266.7023
   3   1.0000      -9.801056      -266.7003
   4   1.0000      -9.763091      -265.6672
   5   1.0000      -9.763008      -265.6650
   6   1.0000      -9.763004      -265.6649
   7   1.0000      -9.762912      -265.6623
   8   1.0000      -9.762844      -265.6605
   9   1.0000      -9.762824      -265.6599
  10   1.0000      -9.756184      -265.4793
  11   1.0000      -9.756026      -265.4750
  12   1.0000      -9.755746      -265.4673
  13   1.0000      -9.749176      -265.2886
  14   1.0000      -9.748819      -265.2788
  15   1.0000      -9.748573      -265.2722
  16   1.0000      -9.748324      -265.2654
  17   1.0000      -9.748306      -265.2649
  18   1.0000      -9.748136      -265.2603
  19   1.0000      -9.739584      -265.0276
  20   1.0000      -9.739394      -265.0224
  21   1.0000      -9.739374      -265.0218
  22   1.0000      -9.735604      -264.9193
  23   1.0000      -9.735216      -264.9087
  24   1.0000      -9.735055      -264.9043
  25   1.0000      -9.725907      -264.6554
  26   1.0000      -9.725856      -264.6540
  27   1.0000      -9.725353      -264.6403
  28   1.0000      -0.729052       -19.8385
  29   1.0000      -0.664459       -18.0809
  30   1.0000      -0.650476       -17.7003
  31   1.0000      -0.650400       -17.6983
  32   1.0000      -0.608889       -16.5687
  33   1.0000      -0.597785       -16.2666
  34   1.0000      -0.597483       -16.2583
  35   1.0000      -0.579743       -15.7756
  36   1.0000      -0.579640       -15.7728
  37   1.0000      -0.545171       -14.8349
  38   1.0000      -0.520882       -14.1739
  39   1.0000      -0.520802       -14.1718
  40   1.0000      -0.518296       -14.1035
  41   1.0000      -0.512744       -13.9525
  42   1.0000      -0.512457       -13.9447
  43   1.0000      -0.495599       -13.4859
  44   1.0000      -0.444061       -12.0835
  45   1.0000      -0.443963       -12.0808
  46   1.0000      -0.423666       -11.5285
  47   1.0000      -0.404507       -11.0072
  48   1.0000      -0.404499       -11.0070
  49   1.0000      -0.399200       -10.8628
  50   1.0000      -0.395518       -10.7626
  51   1.0000      -0.381066       -10.3693
  52   1.0000      -0.380966       -10.3666
  53   1.0000      -0.357237        -9.7209
  54   1.0000      -0.356422        -9.6987
  55   1.0000      -0.356328        -9.6962
  56   1.0000      -0.341572        -9.2946
  57   1.0000      -0.310368        -8.4455
  58   1.0000      -0.307451        -8.3662
  59   1.0000      -0.307340        -8.3631
  60   1.0000      -0.297567        -8.0972
  61   1.0000      -0.297453        -8.0941
  62   1.0000      -0.280697        -7.6382
  63   1.0000      -0.277410        -7.5487
  64   1.0000      -0.277292        -7.5455
  65   1.0000      -0.273932        -7.4541
  66   1.0000      -0.273901        -7.4532
  67   1.0000      -0.240917        -6.5557
  68   1.0000      -0.240862        -6.5542
  69   1.0000      -0.236273        -6.4293
  70   1.0000      -0.228861        -6.2276
  71   1.0000      -0.225362        -6.1324
  72   1.0000      -0.224785        -6.1167
  73   1.0000      -0.224694        -6.1142
  74   1.0000      -0.212125        -5.7722
  75   1.0000      -0.211991        -5.7686
  76   1.0000      -0.209889        -5.7114
  77   1.0000      -0.195765        -5.3270
  78   1.0000      -0.187670        -5.1068
  79   1.0000      -0.187650        -5.1062
  80   1.0000      -0.178332        -4.8527
  81   1.0000      -0.178297        -4.8517
  82   1.0000      -0.171059        -4.6548
  83   1.0000      -0.166010        -4.5174
  84   1.0000      -0.165967        -4.5162
  85   1.0000      -0.159842        -4.3495
  86   1.0000      -0.156054        -4.2464
  87   1.0000      -0.154836        -4.2133
  88   1.0000      -0.154738        -4.2106
  89   1.0000      -0.144843        -3.9414
  90   1.0000      -0.144718        -3.9380
  91   1.0000      -0.132010        -3.5922
  92   1.0000      -0.117110        -3.1867
  93   1.0000      -0.117036        -3.1847
  94   1.0000      -0.093230        -2.5369
  95   1.0000      -0.093169        -2.5352
  96   1.0000      -0.090766        -2.4699
  97   1.0000      -0.060846        -1.6557
  98   1.0000      -0.058578        -1.5940
  99   1.0000      -0.056423        -1.5354
 100   1.0000      -0.056169        -1.5284
 101   1.0000       0.023488         0.6391
 102   0.0000       0.083115         2.2617
 103   0.0000       0.083840         2.2814
 104   0.0000       0.097793         2.6611
 105   0.0000       0.117911         3.2085
 106   0.0000       0.119206         3.2438

MULLIKEN ATOMIC CHARGES AND SPIN POPULATIONS
--------------------------------------------
   0 C :    0.887998    0.345827
   1 C :   -0.353801    0.004567
   2 C :   -0.367938   -0.032813
   3 C :   -0.354511   -0.029576
   4 C :   -0.385521   -0.030151
   5 C :   -0.338189   -0.014721
   6 C :   -0.353173   -0.014281
   7 C :   -0.341248   -0.015235
   8 C :   -0.330749   -0.015344
   9 C :   -0.360906   -0.012144
  10 C :   -0.358647   -0.011895
  11 C :   -0.164061    0.009629
  12 C :   -0.175277    0.009425
  13 C :   -0.159281    0.009536
  14 C :   -0.358135    0.046212
  15 C :   -0.339027    0.040336
  16 C :   -0.343387    0.035143
  17 C :   -0.326411    0.105018
  18 C :   -0.299850    0.097710
  19 C :   -0.331251    0.109291
  20 C :   -0.313731    0.104125
  21 C :   -0.303425    0.099376
  22 C :   -0.299317    0.094192
  23 C :    0.928413    0.330034
  24 C :    0.905252    0.356988
  25 C :   -0.318181    0.003304
  26 C :   -0.342756    0.006333
  27 N :    0.392690   -0.017331
  28 H :    0.157242    0.000639
  29 H :    0.080264   -0.000610
  30 H :    0.165145   -0.001247
  31 H :    0.071559   -0.001326
  32 H :    0.068062   -0.001858
  33 H :    0.152593   -0.001271
  34 H :    0.160797   -0.001357
  35 H :    0.078298   -0.001800
  36 H :    0.148011   -0.000969
  37 H :    0.072562   -0.000438
  38 H :    0.077995   -0.000865
  39 H :    0.155191   -0.001234
  40 H :    0.070249   -0.000640
  41 H :    0.150448   -0.000632
  42 H :    0.142189   -0.000555
  43 H :    0.066959   -0.000548
  44 H :    0.073356   -0.000494
  45 H :    0.157388   -0.001203
  46 H :    0.154012   -0.001028
  47 H :    0.079141   -0.000872
  48 H :    0.087071    0.000228
  49 H :    0.091385    0.000261
  50 H :    0.083318    0.000242
  51 H :    0.053892    0.042561
  52 H :    0.054584    0.041810
  53 H :    0.058550    0.043339
  54 H :    0.062066    0.045255
  55 H :    0.054567    0.046416
  56 H :    0.057012    0.046170
  57 H :    0.058681    0.046411
  58 H :    0.058397    0.045737
  59 H :    0.053005    0.046398
  60 H :    0.073411   -0.000620
  61 H :    0.149286    0.000746
  62 H :    0.151919    0.000485
  63 H :    0.075811   -0.000687
Sum of atomic charges         :   -1.0000000

LOEWDIN ATOMIC CHARGES AND SPIN POPULATIONS
-------------------------------------------
   0 C :   -0.104777    0.457877
   1 C :   -0.017033    0.010614
   2 C :   -0.021699    0.008653
   3 C :   -0.020690    0.009200
   4 C :   -0.022534    0.008952
   5 C :   -0.009855    0.009948
   6 C :   -0.012368    0.009888
   7 C :   -0.010874    0.010090
   8 C :   -0.009349    0.010021
   9 C :   -0.010612    0.010019
  10 C :   -0.012831    0.010012
  11 C :   -0.071560    0.001268
  12 C :   -0.072611    0.001239
  13 C :   -0.070878    0.001317
  14 C :   -0.108792    0.027016
  15 C :   -0.107492    0.026060
  16 C :   -0.108853    0.026068
  17 C :   -0.105770    0.036857
  18 C :   -0.105106    0.036790
  19 C :   -0.106715    0.038154
  20 C :   -0.106380    0.037798
  21 C :   -0.105406    0.036735
  22 C :   -0.104489    0.036487
  23 C :   -0.103572    0.454909
  24 C :   -0.104134    0.459708
  25 C :   -0.015202    0.010420
  26 C :   -0.016400    0.010984
  27 N :   -0.011136    0.007031
  28 H :   -0.010522    0.000541
  29 H :    0.025628   -0.000356
  30 H :   -0.009583    0.000450
  31 H :    0.024390   -0.000279
  32 H :    0.024137   -0.000298
  33 H :   -0.009265    0.000435
  34 H :   -0.009310    0.000443
  35 H :    0.024790   -0.000294
  36 H :   -0.014718    0.000521
  37 H :    0.029348    0.000253
  38 H :    0.029684    0.000230
  39 H :   -0.015534    0.000525
  40 H :    0.028843    0.000248
  41 H :   -0.015847    0.000525
  42 H :   -0.014351    0.000510
  43 H :    0.028765    0.000241
  44 H :    0.028870    0.000237
  45 H :   -0.016202    0.000527
  46 H :   -0.013675    0.000521
  47 H :    0.030082    0.000227
  48 H :    0.033407    0.000172
  49 H :    0.033891    0.000178
  50 H :    0.033216    0.000187
  51 H :    0.043761    0.019335
  52 H :    0.043941    0.019357
  53 H :    0.043898    0.019640
  54 H :    0.045730    0.021686
  55 H :    0.045055    0.021974
  56 H :    0.045148    0.021886
  57 H :    0.045191    0.022013
  58 H :    0.045410    0.021915
  59 H :    0.044891    0.021939
  60 H :    0.025120   -0.000344
  61 H :   -0.011085    0.000555
  62 H :   -0.011093    0.000542
  63 H :    0.025106   -0.000358

  Mayer bond orders larger than 0.100000
B(  0-C , 15-C ) :   1.0664 B(  0-C , 20-C ) :   1.0574 B(  0-C , 21-C ) :   1.0658
B(  0-C , 23-C ) :   0.1920 B(  0-C , 24-C ) :   0.1942 B(  0-C , 27-N ) :   0.1604
B(  1-C ,  4-C ) :   0.1501 B(  1-C , 15-C ) :   0.9627 B(  1-C , 16-C ) :   0.9621
B(  1-C , 28-H ) :   0.7748 B(  1-C , 29-H ) :   0.9807 B(  2-C , 17-C ) :   0.9766
B(  2-C , 21-C ) :   0.9846 B(  2-C , 25-C ) :   0.1532 B(  2-C , 30-H ) :   0.7686
B(  2-C , 31-H ) :   0.9725 B(  3-C , 19-C ) :   0.9773 B(  3-C , 22-C ) :   0.9832
B(  3-C , 26-C ) :   0.1412 B(  3-C , 32-H ) :   0.9822 B(  3-C , 33-H ) :   0.7791
B(  4-C , 18-C ) :   0.9778 B(  4-C , 20-C ) :   0.9832 B(  4-C , 34-H ) :   0.7743
B(  4-C , 35-H ) :   0.9797 B(  5-C ,  7-C ) :   0.1448 B(  5-C , 13-C ) :   0.9524
B(  5-C , 17-C ) :   0.9688 B(  5-C , 36-H ) :   0.7689 B(  5-C , 37-H ) :   0.9739
B(  6-C , 10-C ) :   0.1532 B(  6-C , 11-C ) :   0.9604 B(  6-C , 18-C ) :   0.9611
B(  6-C , 38-H ) :   0.9745 B(  6-C , 39-H ) :   0.7646 B(  7-C , 12-C ) :   0.9489
B(  7-C , 19-C ) :   0.9658 B(  7-C , 40-H ) :   0.9754 B(  7-C , 41-H ) :   0.7707
B(  8-C ,  9-C ) :   0.1477 B(  8-C , 11-C ) :   0.9456 B(  8-C , 20-C ) :   0.9660
B(  8-C , 42-H ) :   0.7681 B(  8-C , 43-H ) :   0.9778 B(  9-C , 13-C ) :   0.9488
B(  9-C , 21-C ) :   0.9638 B(  9-C , 44-H ) :   0.9806 B(  9-C , 45-H ) :   0.7708
B( 10-C , 12-C ) :   0.9603 B( 10-C , 22-C ) :   0.9642 B( 10-C , 46-H ) :   0.7637
B( 10-C , 47-H ) :   0.9730 B( 11-C , 12-C ) :   0.1066 B( 11-C , 13-C ) :   0.1089
B( 11-C , 27-N ) :   1.1020 B( 11-C , 48-H ) :   1.0117 B( 12-C , 13-C ) :   0.1088
B( 12-C , 27-N ) :   1.1128 B( 12-C , 49-H ) :   1.0102 B( 13-C , 27-N ) :   1.0924
B( 13-C , 50-H ) :   1.0179 B( 14-C , 17-C ) :   0.2307 B( 14-C , 19-C ) :   0.2305
B( 14-C , 23-C ) :   1.0563 B( 14-C , 25-C ) :   0.9569 B( 14-C , 26-C ) :   0.9589
B( 14-C , 51-H ) :   1.0268 B( 15-C , 20-C ) :   0.2215 B( 15-C , 21-C ) :   0.2183
B( 15-C , 25-C ) :   0.9614 B( 15-C , 52-H ) :   1.0178 B( 16-C , 18-C ) :   0.2162
B( 16-C , 22-C ) :   0.2170 B( 16-C , 24-C ) :   1.0789 B( 16-C , 26-C ) :   0.9643
B( 16-C , 53-H ) :   1.0047 B( 17-C , 19-C ) :   0.2176 B( 17-C , 23-C ) :   1.0516
B( 17-C , 54-H ) :   1.0092 B( 18-C , 22-C ) :   0.2125 B( 18-C , 24-C ) :   1.0701
B( 18-C , 55-H ) :   0.9989 B( 19-C , 23-C ) :   1.0409 B( 19-C , 56-H ) :   1.0192
B( 20-C , 21-C ) :   0.2153 B( 20-C , 57-H ) :   1.0085 B( 21-C , 58-H ) :   0.9999
B( 22-C , 24-C ) :   1.0581 B( 22-C , 59-H ) :   1.0001 B( 23-C , 24-C ) :   0.1986
B( 23-C , 27-N ) :   0.1601 B( 24-C , 27-N ) :   0.1556 B( 25-C , 60-H ) :   0.9782
B( 25-C , 61-H ) :   0.7704 B( 26-C , 62-H ) :   0.7804 B( 26-C , 63-H ) :   0.9860
B( 28-H , 34-H ) :   0.2258 B( 30-H , 61-H ) :   0.2270 B( 33-H , 62-H ) :   0.2245
B( 36-H , 41-H ) :   0.2432 B( 39-H , 46-H ) :   0.2440 B( 42-H , 45-H ) :   0.2440

FINAL SINGLE POINT ENERGY     -1103.167878348374

DIPOLE MOMENT
-------------
                                X             Y             Z
Electronic contribution:     -0.00348       0.01121       1.06682
Nuclear contribution   :      0.00038      -0.00379      -0.32886
                        -----------------------------------------
Total Dipole Moment    :     -0.00310       0.00742       0.73796
                        -----------------------------------------
Magnitude (a.u.)       :      0.73800
Magnitude (Debye)      :      1.87586

Rotational constants in cm-1:     0.009246     0.009141     0.009141
Rotational constants in MHz :   277.183097   274.048600   274.045280

                             ****ORCA TERMINATED NORMALLY****
TOTAL RUN TIME: 0 days 0 hours 4 minutes 47 seconds 417 msec
