                         Program Version 4.2.1 -  RELEASE  -
|  1> # Use EPR-II is a special basis set for epr, autoaux creates a large auxiliary basis
|  2> !PBE EPR-II AUTOAUX RIJCOSX
|  3>
|  4> # use original (unoptimized) cluster xyz
|  5> *xyzfile -1 3 nv.xyz
|  6>
|  7> # Parallelization
|  8> %PAL NPROCS 72 END
|  9>
| 10> # ZFS calculation
| 11> %EPRNMR DTENSOR SSANDSO
| 12>     DSS     UNO
| 13>     DSOC    CP
| 14> END
| 15>
| 16>                          ****END OF INPUT****

CARTESIAN COORDINATES (ANGSTROEM)
---------------------------------
  C      0.896763   -1.251483   -2.249811
  C     -0.600694   -1.325909   -4.258023
  C      2.889480    0.284481   -2.199697
  C     -1.691096    2.360028   -2.199804
  C     -1.198284   -2.644637   -2.199700
  C      2.029048    1.462850   -0.144983
  C     -2.037495   -1.451062   -0.144986
  C     -0.237905    2.490050   -0.145035
  C      0.252349   -2.488634   -0.144933
  C      2.275406   -1.038997   -0.144931
  C     -2.281390    1.025775   -0.145037
  C     -0.586853   -1.295118    0.395617
  C     -0.828195    1.155795    0.395566
  C      1.415030    0.139346    0.395618
  C      0.602303    1.329041   -3.737621
  C      0.849980   -1.186190   -3.737569
  C     -1.452114   -0.143068   -3.737623
  C      2.028810    1.461765   -1.693673
  C     -2.036388   -1.451184   -1.693676
  C     -0.238503    2.489128   -1.693726
  C      0.251588   -2.487910   -1.693623
  C      2.274968   -1.038042   -1.693621
  C     -2.280322    1.026047   -1.693727
  C      0.635448    1.402266   -2.249865
  C     -1.532109   -0.150914   -2.249867
  C      1.448643    0.142559   -4.258021
  C     -0.847757    1.183102   -4.258075
  N      0.000000    0.000000    0.000000
  H     -1.018003   -2.246860   -3.907906
  H     -0.597719   -1.319399   -5.328003
  H      2.906966    0.286181   -3.269544
  H      3.889890    0.382999   -1.833101
  H     -2.275211    3.175194   -1.826663
  H     -1.705390    2.379978   -3.269519
  H     -1.205513   -2.660648   -3.269548
  H     -1.613184   -3.560271   -1.833106
  H      1.449885    2.290603    0.207581
  H      3.037402    1.546568    0.203028
  H     -2.448454   -2.373847    0.207839
  H     -2.628858   -0.629932    0.202756
  H     -0.831595    3.307349    0.207753
  H      0.768883    2.591626    0.202744
  H      1.258772   -2.400935    0.207668
  H     -0.179340   -3.403747    0.203076
  H      3.280039   -0.933491    0.207895
  H      1.859966   -1.961682    0.202848
  H     -2.708666    0.110344    0.207562
  H     -2.858072    1.857190    0.202936
  H     -0.592025   -1.306476    1.465539
  H     -0.835488    1.165970    1.465488
  H      1.427446    0.140591    1.465541
  H      1.017065    2.244370   -4.105093
  H      1.435311   -2.003055   -4.105005
  H     -2.452192   -0.241553   -4.105096
  H      2.453425    2.380934   -2.039696
  H     -3.043270   -1.557764   -2.039701
  H      0.172650    3.414397   -2.039749
  H      0.835319   -3.315227   -2.039611
  H      2.870712   -1.856751   -2.039609
  H     -3.288652    0.934175   -2.039752
  H      1.441752    0.141858   -5.328007
  H      2.454798    0.241643   -3.907684
  H     -1.436684    2.004984   -3.907994
  H     -0.843566    1.177254   -5.328055

 Total Charge           Charge          ....   -1
 Multiplicity           Mult            ....    3
 Number of Electrons    NEL             ....  206
 Basis Dimension        Dim             ....  728

ORBITAL ENERGIES
----------------
                 SPIN UP ORBITALS
  NO   OCC          E(Eh)            E(eV)
   0   1.0000     -13.855696      -377.0327
   1   1.0000      -9.801430      -266.7105
   2   1.0000      -9.801119      -266.7020
   3   1.0000      -9.801118      -266.7020
   4   1.0000      -9.762813      -265.6596
   5   1.0000      -9.762782      -265.6588
   6   1.0000      -9.762773      -265.6586
   7   1.0000      -9.762659      -265.6554
   8   1.0000      -9.762611      -265.6541
   9   1.0000      -9.762497      -265.6510
  10   1.0000      -9.755748      -265.4674
  11   1.0000      -9.755533      -265.4615
  12   1.0000      -9.755394      -265.4578
  13   1.0000      -9.749260      -265.2909
  14   1.0000      -9.748948      -265.2824
  15   1.0000      -9.748669      -265.2748
  16   1.0000      -9.748491      -265.2699
  17   1.0000      -9.748357      -265.2663
  18   1.0000      -9.748211      -265.2623
  19   1.0000      -9.739860      -265.0351
  20   1.0000      -9.739738      -265.0317
  21   1.0000      -9.739134      -265.0153
  22   1.0000      -9.735614      -264.9195
  23   1.0000      -9.735447      -264.9150
  24   1.0000      -9.735368      -264.9128
  25   1.0000      -9.734583      -264.8915
  26   1.0000      -9.734442      -264.8876
  27   1.0000      -9.734088      -264.8780
  28   1.0000      -0.729675       -19.8555
  29   1.0000      -0.667425       -18.1616
  30   1.0000      -0.652364       -17.7517
  31   1.0000      -0.652232       -17.7481
  32   1.0000      -0.609346       -16.5811
  33   1.0000      -0.598223       -16.2785
  34   1.0000      -0.597994       -16.2722
  35   1.0000      -0.582452       -15.8493
  36   1.0000      -0.582347       -15.8465
  37   1.0000      -0.545775       -14.8513
  38   1.0000      -0.521567       -14.1926
  39   1.0000      -0.521545       -14.1920
  40   1.0000      -0.518962       -14.1217
  41   1.0000      -0.515878       -14.0378
  42   1.0000      -0.515784       -14.0352
  43   1.0000      -0.501953       -13.6588
  44   1.0000      -0.444688       -12.1006
  45   1.0000      -0.444606       -12.0983
  46   1.0000      -0.423881       -11.5344
  47   1.0000      -0.405284       -11.0283
  48   1.0000      -0.405256       -11.0276
  49   1.0000      -0.400268       -10.8918
  50   1.0000      -0.397500       -10.8165
  51   1.0000      -0.384027       -10.4499
  52   1.0000      -0.383965       -10.4482
  53   1.0000      -0.358435        -9.7535
  54   1.0000      -0.357949        -9.7403
  55   1.0000      -0.357887        -9.7386
  56   1.0000      -0.346439        -9.4271
  57   1.0000      -0.312903        -8.5145
  58   1.0000      -0.308968        -8.4075
  59   1.0000      -0.308887        -8.4053
  60   1.0000      -0.301294        -8.1986
  61   1.0000      -0.301227        -8.1968
  62   1.0000      -0.282086        -7.6760
  63   1.0000      -0.279300        -7.6001
  64   1.0000      -0.279174        -7.5967
  65   1.0000      -0.275631        -7.5003
  66   1.0000      -0.275577        -7.4988
  67   1.0000      -0.242660        -6.6031
  68   1.0000      -0.242584        -6.6010
  69   1.0000      -0.238247        -6.4830
  70   1.0000      -0.231041        -6.2869
  71   1.0000      -0.228430        -6.2159
  72   1.0000      -0.226269        -6.1571
  73   1.0000      -0.226237        -6.1562
  74   1.0000      -0.212493        -5.7822
  75   1.0000      -0.212363        -5.7787
  76   1.0000      -0.210117        -5.7176
  77   1.0000      -0.197014        -5.3610
  78   1.0000      -0.190607        -5.1867
  79   1.0000      -0.190595        -5.1864
  80   1.0000      -0.179318        -4.8795
  81   1.0000      -0.179280        -4.8785
  82   1.0000      -0.171395        -4.6639
  83   1.0000      -0.166765        -4.5379
  84   1.0000      -0.166738        -4.5372
  85   1.0000      -0.161149        -4.3851
  86   1.0000      -0.158653        -4.3172
  87   1.0000      -0.156271        -4.2523
  88   1.0000      -0.156166        -4.2495
  89   1.0000      -0.146974        -3.9994
  90   1.0000      -0.146846        -3.9959
  91   1.0000      -0.135099        -3.6762
  92   1.0000      -0.119914        -3.2630
  93   1.0000      -0.119871        -3.2619
  94   1.0000      -0.095616        -2.6018
  95   1.0000      -0.095549        -2.6000
  96   1.0000      -0.092613        -2.5201
  97   1.0000      -0.077029        -2.0961
  98   1.0000      -0.059095        -1.6081
  99   1.0000      -0.056859        -1.5472
 100   1.0000      -0.056523        -1.5381
 101   1.0000       0.002075         0.0565
 102   1.0000       0.047335         1.2881
 103   1.0000       0.047583         1.2948
 104   0.0000       0.096958         2.6384
 105   0.0000       0.113813         3.0970
 106   0.0000       0.116315         3.1651
 107   0.0000       0.117282         3.1914
 108   0.0000       0.124656         3.3921

                 SPIN DOWN ORBITALS
  NO   OCC          E(Eh)            E(eV)
   0   1.0000     -13.855646      -377.0313
   1   1.0000      -9.801384      -266.7092
   2   1.0000      -9.801073      -266.7008
   3   1.0000      -9.801071      -266.7007
   4   1.0000      -9.763044      -265.6659
   5   1.0000      -9.763013      -265.6651
   6   1.0000      -9.763004      -265.6648
   7   1.0000      -9.762890      -265.6617
   8   1.0000      -9.762844      -265.6605
   9   1.0000      -9.762727      -265.6573
  10   1.0000      -9.756149      -265.4783
  11   1.0000      -9.755929      -265.4723
  12   1.0000      -9.755793      -265.4686
  13   1.0000      -9.749154      -265.2880
  14   1.0000      -9.748840      -265.2794
  15   1.0000      -9.748563      -265.2719
  16   1.0000      -9.748384      -265.2670
  17   1.0000      -9.748251      -265.2634
  18   1.0000      -9.748104      -265.2594
  19   1.0000      -9.739704      -265.0308
  20   1.0000      -9.739581      -265.0275
  21   1.0000      -9.738978      -265.0111
  22   1.0000      -9.735419      -264.9142
  23   1.0000      -9.735252      -264.9097
  24   1.0000      -9.735174      -264.9075
  25   1.0000      -9.725884      -264.6548
  26   1.0000      -9.725770      -264.6516
  27   1.0000      -9.725348      -264.6402
  28   1.0000      -0.729055       -19.8386
  29   1.0000      -0.664431       -18.0801
  30   1.0000      -0.650493       -17.7008
  31   1.0000      -0.650361       -17.6972
  32   1.0000      -0.608883       -16.5686
  33   1.0000      -0.597746       -16.2655
  34   1.0000      -0.597521       -16.2594
  35   1.0000      -0.579725       -15.7751
  36   1.0000      -0.579619       -15.7722
  37   1.0000      -0.545167       -14.8347
  38   1.0000      -0.520845       -14.1729
  39   1.0000      -0.520816       -14.1721
  40   1.0000      -0.518286       -14.1033
  41   1.0000      -0.512635       -13.9495
  42   1.0000      -0.512564       -13.9476
  43   1.0000      -0.495597       -13.4859
  44   1.0000      -0.444050       -12.0832
  45   1.0000      -0.443969       -12.0810
  46   1.0000      -0.423668       -11.5286
  47   1.0000      -0.404519       -11.0075
  48   1.0000      -0.404495       -11.0069
  49   1.0000      -0.399183       -10.8623
  50   1.0000      -0.395492       -10.7619
  51   1.0000      -0.381040       -10.3686
  52   1.0000      -0.380978       -10.3669
  53   1.0000      -0.357228        -9.7207
  54   1.0000      -0.356398        -9.6981
  55   1.0000      -0.356336        -9.6964
  56   1.0000      -0.341555        -9.2942
  57   1.0000      -0.310376        -8.4458
  58   1.0000      -0.307439        -8.3658
  59   1.0000      -0.307344        -8.3633
  60   1.0000      -0.297554        -8.0969
  61   1.0000      -0.297463        -8.0944
  62   1.0000      -0.280700        -7.6382
  63   1.0000      -0.277412        -7.5488
  64   1.0000      -0.277279        -7.5451
  65   1.0000      -0.273907        -7.4534
  66   1.0000      -0.273883        -7.4527
  67   1.0000      -0.240913        -6.5556
  68   1.0000      -0.240837        -6.5535
  69   1.0000      -0.236273        -6.4293
  70   1.0000      -0.228835        -6.2269
  71   1.0000      -0.225349        -6.1321
  72   1.0000      -0.224744        -6.1156
  73   1.0000      -0.224715        -6.1148
  74   1.0000      -0.212109        -5.7718
  75   1.0000      -0.211981        -5.7683
  76   1.0000      -0.209874        -5.7110
  77   1.0000      -0.195757        -5.3268
  78   1.0000      -0.187661        -5.1065
  79   1.0000      -0.187647        -5.1061
  80   1.0000      -0.178337        -4.8528
  81   1.0000      -0.178294        -4.8516
  82   1.0000      -0.171037        -4.6541
  83   1.0000      -0.165988        -4.5168
  84   1.0000      -0.165965        -4.5161
  85   1.0000      -0.159847        -4.3497
  86   1.0000      -0.156045        -4.2462
  87   1.0000      -0.154836        -4.2133
  88   1.0000      -0.154736        -4.2106
  89   1.0000      -0.144839        -3.9413
  90   1.0000      -0.144707        -3.9377
  91   1.0000      -0.132003        -3.5920
  92   1.0000      -0.117096        -3.1863
  93   1.0000      -0.117045        -3.1850
  94   1.0000      -0.093244        -2.5373
  95   1.0000      -0.093169        -2.5353
  96   1.0000      -0.090764        -2.4698
  97   1.0000      -0.060829        -1.6552
  98   1.0000      -0.058594        -1.5944
  99   1.0000      -0.056460        -1.5364
 100   1.0000      -0.056125        -1.5272
 101   1.0000       0.023513         0.6398
 102   0.0000       0.083189         2.2637
 103   0.0000       0.083790         2.2801
 104   0.0000       0.097813         2.6616
 105   0.0000       0.117896         3.2081
 106   0.0000       0.119253         3.2450

MULLIKEN ATOMIC CHARGES AND SPIN POPULATIONS
--------------------------------------------
   0 C :    0.932523    0.333884
   1 C :   -0.318849    0.003374
   2 C :   -0.354083   -0.028982
   3 C :   -0.383546   -0.030715
   4 C :   -0.370026   -0.032737
   5 C :   -0.355504   -0.012321
   6 C :   -0.361165   -0.012639
   7 C :   -0.359600   -0.014122
   8 C :   -0.346377   -0.014516
   9 C :   -0.340738   -0.015111
  10 C :   -0.332992   -0.015120
  11 C :   -0.155376    0.009641
  12 C :   -0.159075    0.009636
  13 C :   -0.176809    0.009398
  14 C :   -0.353055    0.035764
  15 C :   -0.361331    0.044915
  16 C :   -0.337608    0.040410
  17 C :   -0.306318    0.095268
  18 C :   -0.306191    0.100642
  19 C :   -0.299252    0.097422
  20 C :   -0.323038    0.103428
  21 C :   -0.330609    0.107806
  22 C :   -0.311482    0.104564
  23 C :    0.912966    0.356004
  24 C :    0.887560    0.344087
  25 C :   -0.341526    0.006618
  26 C :   -0.347615    0.004377
  27 N :    0.390194   -0.017396
  28 H :    0.148457    0.000763
  29 H :    0.073712   -0.000619
  30 H :    0.153574   -0.001319
  31 H :    0.067149   -0.001932
  32 H :    0.078239   -0.001709
  33 H :    0.159327   -0.001318
  34 H :    0.165860   -0.001271
  35 H :    0.073018   -0.001341
  36 H :    0.152751   -0.000863
  37 H :    0.077405   -0.000871
  38 H :    0.072316   -0.000461
  39 H :    0.156769   -0.001100
  40 H :    0.080316   -0.000822
  41 H :    0.157557   -0.001348
  42 H :    0.150354   -0.001090
  43 H :    0.075901   -0.000469
  44 H :    0.069917   -0.000691
  45 H :    0.150269   -0.000569
  46 H :    0.143195   -0.000575
  47 H :    0.066353   -0.000514
  48 H :    0.082598    0.000237
  49 H :    0.085331    0.000223
  50 H :    0.092258    0.000273
  51 H :    0.060025    0.043307
  52 H :    0.055129    0.042640
  53 H :    0.053264    0.041792
  54 H :    0.054364    0.046263
  55 H :    0.058401    0.045852
  56 H :    0.056104    0.046215
  57 H :    0.062216    0.045269
  58 H :    0.056562    0.046104
  59 H :    0.058038    0.046531
  60 H :    0.075932   -0.000703
  61 H :    0.151187    0.000481
  62 H :    0.156072    0.000663
  63 H :    0.079001   -0.000608
Sum of atomic charges         :   -1.0000000

LOEWDIN ATOMIC CHARGES AND SPIN POPULATIONS
-------------------------------------------
   0 C :   -0.103364    0.455678
   1 C :   -0.015367    0.010399
   2 C :   -0.020257    0.009272
   3 C :   -0.022664    0.008892
   4 C :   -0.021892    0.008652
   5 C :   -0.012742    0.009986
   6 C :   -0.010471    0.010042
   7 C :   -0.012596    0.009853
   8 C :   -0.010416    0.009910
   9 C :   -0.011057    0.010057
  10 C :   -0.009189    0.010076
  11 C :   -0.070733    0.001324
  12 C :   -0.071255    0.001278
  13 C :   -0.072730    0.001230
  14 C :   -0.109251    0.026134
  15 C :   -0.108946    0.026939
  16 C :   -0.107201    0.025996
  17 C :   -0.104832    0.036633
  18 C :   -0.105634    0.036956
  19 C :   -0.104974    0.036598
  20 C :   -0.105607    0.036707
  21 C :   -0.106546    0.038039
  22 C :   -0.106317    0.037865
  23 C :   -0.103998    0.459564
  24 C :   -0.104802    0.457392
  25 C :   -0.015850    0.011048
  26 C :   -0.017112    0.010561
  27 N :   -0.011167    0.007033
  28 H :   -0.011074    0.000554
  29 H :    0.025159   -0.000345
  30 H :   -0.010124    0.000438
  31 H :    0.023833   -0.000306
  32 H :    0.024926   -0.000284
  33 H :   -0.008529    0.000440
  34 H :   -0.009525    0.000449
  35 H :    0.024482   -0.000278
  36 H :   -0.013639    0.000521
  37 H :    0.030005    0.000225
  38 H :    0.028768    0.000240
  39 H :   -0.016227    0.000528
  40 H :    0.029818    0.000233
  41 H :   -0.015516    0.000525
  42 H :   -0.014587    0.000520
  43 H :    0.029620    0.000251
  44 H :    0.028896    0.000242
  45 H :   -0.015784    0.000525
  46 H :   -0.014426    0.000511
  47 H :    0.028650    0.000245
  48 H :    0.033155    0.000187
  49 H :    0.033289    0.000173
  50 H :    0.033937    0.000177
  51 H :    0.043978    0.019634
  52 H :    0.043827    0.019376
  53 H :    0.043819    0.019324
  54 H :    0.044932    0.021939
  55 H :    0.045321    0.021928
  56 H :    0.045201    0.021924
  57 H :    0.045753    0.021691
  58 H :    0.045069    0.021903
  59 H :    0.045108    0.022026
  60 H :    0.025099   -0.000360
  61 H :   -0.010967    0.000539
  62 H :   -0.010812    0.000544
  63 H :    0.025534   -0.000354

  Mayer bond orders larger than 0.100000
B(  0-C , 15-C ) :   1.0585 B(  0-C , 20-C ) :   1.0529 B(  0-C , 21-C ) :   1.0388
B(  0-C , 23-C ) :   0.1981 B(  0-C , 24-C ) :   0.1925 B(  0-C , 27-N ) :   0.1590
B(  1-C ,  4-C ) :   0.1528 B(  1-C , 15-C ) :   0.9565 B(  1-C , 16-C ) :   0.9617
B(  1-C , 28-H ) :   0.7708 B(  1-C , 29-H ) :   0.9780 B(  2-C , 17-C ) :   0.9831
B(  2-C , 21-C ) :   0.9776 B(  2-C , 25-C ) :   0.1399 B(  2-C , 30-H ) :   0.7782
B(  2-C , 31-H ) :   0.9835 B(  3-C , 19-C ) :   0.9765 B(  3-C , 22-C ) :   0.9826
B(  3-C , 26-C ) :   0.1498 B(  3-C , 32-H ) :   0.9787 B(  3-C , 33-H ) :   0.7753
B(  4-C , 18-C ) :   0.9847 B(  4-C , 20-C ) :   0.9760 B(  4-C , 34-H ) :   0.7685
B(  4-C , 35-H ) :   0.9726 B(  5-C ,  7-C ) :   0.1547 B(  5-C , 13-C ) :   0.9596
B(  5-C , 17-C ) :   0.9631 B(  5-C , 36-H ) :   0.7645 B(  5-C , 37-H ) :   0.9731
B(  6-C , 10-C ) :   0.1496 B(  6-C , 11-C ) :   0.9451 B(  6-C , 18-C ) :   0.9626
B(  6-C , 38-H ) :   0.9812 B(  6-C , 39-H ) :   0.7719 B(  7-C , 12-C ) :   0.9611
B(  7-C , 19-C ) :   0.9603 B(  7-C , 40-H ) :   0.9744 B(  7-C , 41-H ) :   0.7644
B(  8-C ,  9-C ) :   0.1464 B(  8-C , 11-C ) :   0.9550 B(  8-C , 20-C ) :   0.9671
B(  8-C , 42-H ) :   0.7677 B(  8-C , 43-H ) :   0.9736 B(  9-C , 13-C ) :   0.9506
B(  9-C , 21-C ) :   0.9654 B(  9-C , 44-H ) :   0.9750 B(  9-C , 45-H ) :   0.7704
B( 10-C , 12-C ) :   0.9425 B( 10-C , 22-C ) :   0.9662 B( 10-C , 46-H ) :   0.7687
B( 10-C , 47-H ) :   0.9788 B( 11-C , 12-C ) :   0.1085 B( 11-C , 13-C ) :   0.1081
B( 11-C , 27-N ) :   1.0933 B( 11-C , 48-H ) :   1.0179 B( 12-C , 13-C ) :   0.1064
B( 12-C , 27-N ) :   1.1017 B( 12-C , 49-H ) :   1.0128 B( 13-C , 27-N ) :   1.1141
B( 13-C , 50-H ) :   1.0097 B( 14-C , 17-C ) :   0.2195 B( 14-C , 19-C ) :   0.2173
B( 14-C , 23-C ) :   1.0754 B( 14-C , 25-C ) :   0.9659 B( 14-C , 26-C ) :   0.9613
B( 14-C , 51-H ) :   1.0059 B( 15-C , 20-C ) :   0.2299 B( 15-C , 21-C ) :   0.2302
B( 15-C , 25-C ) :   0.9591 B( 15-C , 52-H ) :   1.0243 B( 16-C , 18-C ) :   0.2204
B( 16-C , 22-C ) :   0.2223 B( 16-C , 24-C ) :   1.0646 B( 16-C , 26-C ) :   0.9608
B( 16-C , 53-H ) :   1.0191 B( 17-C , 19-C ) :   0.2124 B( 17-C , 23-C ) :   1.0546
B( 17-C , 54-H ) :   1.0023 B( 18-C , 22-C ) :   0.2164 B( 18-C , 24-C ) :   1.0645
B( 18-C , 55-H ) :   1.0022 B( 19-C , 23-C ) :   1.0694 B( 19-C , 56-H ) :   0.9983
B( 20-C , 21-C ) :   0.2159 B( 20-C , 57-H ) :   1.0071 B( 21-C , 58-H ) :   1.0189
B( 22-C , 24-C ) :   1.0577 B( 22-C , 59-H ) :   1.0095 B( 23-C , 24-C ) :   0.1943
B( 23-C , 27-N ) :   0.1563 B( 24-C , 27-N ) :   0.1605 B( 25-C , 60-H ) :   0.9866
B( 25-C , 61-H ) :   0.7785 B( 26-C , 62-H ) :   0.7770 B( 26-C , 63-H ) :   0.9806
B( 28-H , 34-H ) :   0.2270 B( 30-H , 61-H ) :   0.2272 B( 33-H , 62-H ) :   0.2239
B( 36-H , 41-H ) :   0.2430 B( 39-H , 46-H ) :   0.2431 B( 42-H , 45-H ) :   0.2429

FINAL SINGLE POINT ENERGY     -1103.167974351881

DIPOLE MOMENT
-------------
                                X             Y             Z
Electronic contribution:     -0.00727      -0.00497       1.06682
Nuclear contribution   :     -0.00212       0.00317      -0.32886
                        -----------------------------------------
Total Dipole Moment    :     -0.00939      -0.00181       0.73796
                        -----------------------------------------
Magnitude (a.u.)       :      0.73802
Magnitude (Debye)      :      1.87589

Rotational constants in cm-1:     0.009246     0.009141     0.009141
Rotational constants in MHz :   277.183097   274.048600   274.045280

                             ****ORCA TERMINATED NORMALLY****
TOTAL RUN TIME: 0 days 0 hours 4 minutes 40 seconds 688 msec
