                         Program Version 4.2.1 -  RELEASE  -
|  1> # Use EPR-II is a special basis set for epr, autoaux creates a large auxiliary basis
|  2> !PBE EPR-II AUTOAUX RIJCOSX
|  3>
|  4> # use original (unoptimized) cluster xyz
|  5> *xyzfile -1 3 nv.xyz
|  6>
|  7> # Parallelization
|  8> %PAL NPROCS 72 END
|  9>
| 10> # ZFS calculation
| 11> %EPRNMR DTENSOR SSANDSO
| 12>     DSS     UNO
| 13>     DSOC    CP
| 14> END
| 15>
| 16>                          ****END OF INPUT****

CARTESIAN COORDINATES (ANGSTROEM)
---------------------------------
  C     -0.494863    1.457911   -2.249811
  C      0.959719    1.094443   -4.258023
  C     -2.847640    0.566540   -2.199697
  C      0.933198   -2.749305   -2.199804
  C      1.914384    2.182916   -2.199700
  C     -2.366321   -0.810859   -0.144983
  C      2.370982    0.797126   -0.144986
  C     -0.495163   -2.451890   -0.145035
  C      0.480930    2.454727   -0.144933
  C     -1.875823    1.654773   -0.144931
  C      1.885388   -1.643858   -0.145037
  C      0.937536    1.068997    0.395617
  C      0.457024   -1.346439    0.395566
  C     -1.394550    0.277415    0.395618
  C     -0.962169   -1.096974   -3.737621
  C     -0.469047    1.381849   -3.737569
  C      1.431117   -0.284619   -3.737623
  C     -2.365778   -0.809889   -1.693673
  C      2.369958    0.797565   -1.693676
  C     -0.494322   -2.451181   -1.693726
  C      0.481447    2.453814   -1.693623
  C     -1.875681    1.653732   -1.693621
  C      1.884286   -1.643809   -1.693727
  C     -1.015142   -1.157424   -2.249865
  C      1.509945   -0.300333   -2.249867
  C     -1.427648    0.284098   -4.258021
  C      0.467817   -1.378249   -4.258075
  N      0.000000    0.000000    0.000000
  H      1.626397    1.854600   -3.907906
  H      0.954983    1.089078   -5.328003
  H     -2.864867    0.569990   -3.269544
  H     -3.833572    0.762668   -1.833101
  H      1.255531   -3.698930   -1.826663
  H      0.941086   -2.772546   -3.269519
  H      1.925950    2.196139   -3.269548
  H      2.577213    2.938684   -1.833106
  H     -2.052380   -1.771091    0.207581
  H     -3.355558   -0.598262    0.203028
  H      3.032116    1.560881    0.207839
  H      2.698520   -0.160310    0.202756
  H     -0.164286   -3.406335    0.207753
  H     -1.488085   -2.256837    0.202744
  H     -0.507615    2.662954    0.207668
  H      1.159673    3.205123    0.203076
  H     -2.867824    1.845440    0.207895
  H     -1.210430    2.417133    0.202848
  H      2.560001   -0.891877    0.207562
  H      2.195890   -2.606875    0.202936
  H      0.945782    1.078364    1.465539
  H      0.461049   -1.358293    1.465488
  H     -1.406793    0.279828    1.465541
  H     -1.624777   -1.852489   -4.105093
  H     -0.792051    2.333453   -4.105005
  H      2.416720   -0.480682   -4.105096
  H     -3.038930   -1.566220   -2.039696
  H      3.364423    0.607273   -2.039701
  H     -1.156363   -3.217257   -2.039749
  H      0.163009    3.414955   -2.039611
  H     -2.208114    2.610124   -2.039609
  H      2.875867   -1.848595   -2.039752
  H     -1.420850    0.282768   -5.328007
  H     -2.419241    0.481353   -3.907684
  H      0.792805   -2.335697   -3.907994
  H      0.465503   -1.371436   -5.328055

 Total Charge           Charge          ....   -1
 Multiplicity           Mult            ....    3
 Number of Electrons    NEL             ....  206
 Basis Dimension        Dim             ....  728

ORBITAL ENERGIES
----------------
                 SPIN UP ORBITALS
  NO   OCC          E(Eh)            E(eV)
   0   1.0000     -13.855759      -377.0344
   1   1.0000      -9.801476      -266.7117
   2   1.0000      -9.801337      -266.7079
   3   1.0000      -9.801137      -266.7025
   4   1.0000      -9.762934      -265.6629
   5   1.0000      -9.762928      -265.6628
   6   1.0000      -9.762787      -265.6589
   7   1.0000      -9.762785      -265.6589
   8   1.0000      -9.762701      -265.6566
   9   1.0000      -9.762700      -265.6566
  10   1.0000      -9.755869      -265.4707
  11   1.0000      -9.755724      -265.4667
  12   1.0000      -9.755429      -265.4587
  13   1.0000      -9.749102      -265.2865
  14   1.0000      -9.749058      -265.2853
  15   1.0000      -9.749026      -265.2845
  16   1.0000      -9.748446      -265.2687
  17   1.0000      -9.748315      -265.2651
  18   1.0000      -9.748260      -265.2637
  19   1.0000      -9.740039      -265.0399
  20   1.0000      -9.739660      -265.0296
  21   1.0000      -9.739410      -265.0228
  22   1.0000      -9.735945      -264.9285
  23   1.0000      -9.735395      -264.9136
  24   1.0000      -9.735281      -264.9105
  25   1.0000      -9.734869      -264.8992
  26   1.0000      -9.734507      -264.8894
  27   1.0000      -9.734238      -264.8821
  28   1.0000      -0.729722       -19.8567
  29   1.0000      -0.667544       -18.1648
  30   1.0000      -0.652387       -17.7524
  31   1.0000      -0.652326       -17.7507
  32   1.0000      -0.609388       -16.5823
  33   1.0000      -0.598212       -16.2782
  34   1.0000      -0.598039       -16.2735
  35   1.0000      -0.582510       -15.8509
  36   1.0000      -0.582423       -15.8485
  37   1.0000      -0.545796       -14.8519
  38   1.0000      -0.521615       -14.1939
  39   1.0000      -0.521584       -14.1930
  40   1.0000      -0.519001       -14.1227
  41   1.0000      -0.516005       -14.0412
  42   1.0000      -0.515659       -14.0318
  43   1.0000      -0.501966       -13.6592
  44   1.0000      -0.444696       -12.1008
  45   1.0000      -0.444614       -12.0986
  46   1.0000      -0.423886       -11.5345
  47   1.0000      -0.405296       -11.0287
  48   1.0000      -0.405265       -11.0278
  49   1.0000      -0.400327       -10.8934
  50   1.0000      -0.397596       -10.8191
  51   1.0000      -0.384053       -10.4506
  52   1.0000      -0.384031       -10.4500
  53   1.0000      -0.358454        -9.7540
  54   1.0000      -0.358041        -9.7428
  55   1.0000      -0.357872        -9.7382
  56   1.0000      -0.346513        -9.4291
  57   1.0000      -0.312911        -8.5148
  58   1.0000      -0.309027        -8.4091
  59   1.0000      -0.308890        -8.4053
  60   1.0000      -0.301304        -8.1989
  61   1.0000      -0.301259        -8.1977
  62   1.0000      -0.282106        -7.6765
  63   1.0000      -0.279286        -7.5998
  64   1.0000      -0.279235        -7.5984
  65   1.0000      -0.275716        -7.5026
  66   1.0000      -0.275682        -7.5017
  67   1.0000      -0.242704        -6.6043
  68   1.0000      -0.242653        -6.6029
  69   1.0000      -0.238276        -6.4838
  70   1.0000      -0.231124        -6.2892
  71   1.0000      -0.228479        -6.2172
  72   1.0000      -0.226357        -6.1595
  73   1.0000      -0.226271        -6.1572
  74   1.0000      -0.212490        -5.7822
  75   1.0000      -0.212456        -5.7812
  76   1.0000      -0.210171        -5.7191
  77   1.0000      -0.197060        -5.3623
  78   1.0000      -0.190649        -5.1878
  79   1.0000      -0.190618        -5.1870
  80   1.0000      -0.179320        -4.8795
  81   1.0000      -0.179306        -4.8792
  82   1.0000      -0.171479        -4.6662
  83   1.0000      -0.166803        -4.5390
  84   1.0000      -0.166783        -4.5384
  85   1.0000      -0.161140        -4.3848
  86   1.0000      -0.158708        -4.3187
  87   1.0000      -0.156251        -4.2518
  88   1.0000      -0.156181        -4.2499
  89   1.0000      -0.146959        -3.9990
  90   1.0000      -0.146918        -3.9978
  91   1.0000      -0.135132        -3.6771
  92   1.0000      -0.119949        -3.2640
  93   1.0000      -0.119865        -3.2617
  94   1.0000      -0.095566        -2.6005
  95   1.0000      -0.095562        -2.6004
  96   1.0000      -0.092642        -2.5209
  97   1.0000      -0.077106        -2.0982
  98   1.0000      -0.059055        -1.6070
  99   1.0000      -0.056856        -1.5471
 100   1.0000      -0.056560        -1.5391
 101   1.0000       0.001993         0.0542
 102   1.0000       0.047248         1.2857
 103   1.0000       0.047617         1.2957
 104   0.0000       0.096875         2.6361
 105   0.0000       0.113784         3.0962
 106   0.0000       0.116289         3.1644
 107   0.0000       0.117217         3.1896
 108   0.0000       0.124499         3.3878

                 SPIN DOWN ORBITALS
  NO   OCC          E(Eh)            E(eV)
   0   1.0000     -13.855706      -377.0329
   1   1.0000      -9.801430      -266.7105
   2   1.0000      -9.801291      -266.7067
   3   1.0000      -9.801090      -266.7012
   4   1.0000      -9.763167      -265.6693
   5   1.0000      -9.763161      -265.6691
   6   1.0000      -9.763020      -265.6653
   7   1.0000      -9.763014      -265.6651
   8   1.0000      -9.762933      -265.6629
   9   1.0000      -9.762930      -265.6628
  10   1.0000      -9.756269      -265.4816
  11   1.0000      -9.756122      -265.4776
  12   1.0000      -9.755827      -265.4696
  13   1.0000      -9.748995      -265.2836
  14   1.0000      -9.748952      -265.2825
  15   1.0000      -9.748918      -265.2816
  16   1.0000      -9.748339      -265.2658
  17   1.0000      -9.748207      -265.2622
  18   1.0000      -9.748154      -265.2608
  19   1.0000      -9.739882      -265.0357
  20   1.0000      -9.739506      -265.0254
  21   1.0000      -9.739253      -265.0186
  22   1.0000      -9.735750      -264.9232
  23   1.0000      -9.735201      -264.9083
  24   1.0000      -9.735086      -264.9052
  25   1.0000      -9.726233      -264.6643
  26   1.0000      -9.725786      -264.6521
  27   1.0000      -9.725491      -264.6441
  28   1.0000      -0.729101       -19.8398
  29   1.0000      -0.664550       -18.0833
  30   1.0000      -0.650518       -17.7015
  31   1.0000      -0.650450       -17.6997
  32   1.0000      -0.608925       -16.5697
  33   1.0000      -0.597740       -16.2653
  34   1.0000      -0.597563       -16.2605
  35   1.0000      -0.579791       -15.7769
  36   1.0000      -0.579687       -15.7741
  37   1.0000      -0.545190       -14.8354
  38   1.0000      -0.520892       -14.1742
  39   1.0000      -0.520859       -14.1733
  40   1.0000      -0.518325       -14.1043
  41   1.0000      -0.512779       -13.9534
  42   1.0000      -0.512426       -13.9438
  43   1.0000      -0.495613       -13.4863
  44   1.0000      -0.444058       -12.0834
  45   1.0000      -0.443978       -12.0813
  46   1.0000      -0.423673       -11.5287
  47   1.0000      -0.404534       -11.0079
  48   1.0000      -0.404502       -11.0071
  49   1.0000      -0.399243       -10.8639
  50   1.0000      -0.395592       -10.7646
  51   1.0000      -0.381067       -10.3694
  52   1.0000      -0.381044       -10.3687
  53   1.0000      -0.357250        -9.7213
  54   1.0000      -0.356495        -9.7007
  55   1.0000      -0.356310        -9.6957
  56   1.0000      -0.341636        -9.2964
  57   1.0000      -0.310378        -8.4458
  58   1.0000      -0.307490        -8.3672
  59   1.0000      -0.307356        -8.3636
  60   1.0000      -0.297557        -8.0969
  61   1.0000      -0.297509        -8.0956
  62   1.0000      -0.280721        -7.6388
  63   1.0000      -0.277391        -7.5482
  64   1.0000      -0.277348        -7.5470
  65   1.0000      -0.274009        -7.4562
  66   1.0000      -0.273971        -7.4551
  67   1.0000      -0.240964        -6.5570
  68   1.0000      -0.240903        -6.5553
  69   1.0000      -0.236315        -6.4305
  70   1.0000      -0.228918        -6.2292
  71   1.0000      -0.225387        -6.1331
  72   1.0000      -0.224833        -6.1180
  73   1.0000      -0.224749        -6.1157
  74   1.0000      -0.212112        -5.7719
  75   1.0000      -0.212068        -5.7707
  76   1.0000      -0.209928        -5.7124
  77   1.0000      -0.195801        -5.3280
  78   1.0000      -0.187692        -5.1074
  79   1.0000      -0.187670        -5.1068
  80   1.0000      -0.178336        -4.8528
  81   1.0000      -0.178322        -4.8524
  82   1.0000      -0.171119        -4.6564
  83   1.0000      -0.166029        -4.5179
  84   1.0000      -0.166007        -4.5173
  85   1.0000      -0.159836        -4.3493
  86   1.0000      -0.156100        -4.2477
  87   1.0000      -0.154820        -4.2129
  88   1.0000      -0.154749        -4.2109
  89   1.0000      -0.144822        -3.9408
  90   1.0000      -0.144780        -3.9397
  91   1.0000      -0.132038        -3.5929
  92   1.0000      -0.117134        -3.1874
  93   1.0000      -0.117037        -3.1847
  94   1.0000      -0.093197        -2.5360
  95   1.0000      -0.093183        -2.5357
  96   1.0000      -0.090795        -2.4706
  97   1.0000      -0.060908        -1.6574
  98   1.0000      -0.058554        -1.5933
  99   1.0000      -0.056458        -1.5363
 100   1.0000      -0.056161        -1.5282
 101   1.0000       0.023390         0.6365
 102   0.0000       0.082995         2.2584
 103   0.0000       0.083891         2.2828
 104   0.0000       0.097735         2.6595
 105   0.0000       0.117916         3.2087
 106   0.0000       0.119117         3.2413

MULLIKEN ATOMIC CHARGES AND SPIN POPULATIONS
--------------------------------------------
   0 C :    0.892485    0.356329
   1 C :   -0.366323    0.005002
   2 C :   -0.361268   -0.030796
   3 C :   -0.365207   -0.032741
   4 C :   -0.384303   -0.029281
   5 C :   -0.334802   -0.015120
   6 C :   -0.338481   -0.015313
   7 C :   -0.332531   -0.014987
   8 C :   -0.338562   -0.014984
   9 C :   -0.362336   -0.011250
  10 C :   -0.354777   -0.011265
  11 C :   -0.171407    0.009646
  12 C :   -0.164656    0.009273
  13 C :   -0.171113    0.009274
  14 C :   -0.356757    0.048089
  15 C :   -0.326942    0.035417
  16 C :   -0.335735    0.039402
  17 C :   -0.330573    0.110206
  18 C :   -0.316771    0.103023
  19 C :   -0.329222    0.107787
  20 C :   -0.305933    0.099290
  21 C :   -0.287863    0.093531
  22 C :   -0.293108    0.097094
  23 C :    0.916157    0.324918
  24 C :    0.888223    0.348966
  25 C :   -0.338878    0.005386
  26 C :   -0.321324    0.003514
  27 N :    0.391451   -0.017161
  28 H :    0.161019    0.000597
  29 H :    0.082938   -0.000632
  30 H :    0.158307   -0.001220
  31 H :    0.068712   -0.001642
  32 H :    0.069872   -0.001357
  33 H :    0.160779   -0.001185
  34 H :    0.160465   -0.001451
  35 H :    0.078465   -0.001982
  36 H :    0.143945   -0.000663
  37 H :    0.070004   -0.000547
  38 H :    0.069713   -0.000651
  39 H :    0.149784   -0.000667
  40 H :    0.067839   -0.000408
  41 H :    0.152000   -0.000888
  42 H :    0.145257   -0.000928
  43 H :    0.073715   -0.000851
  44 H :    0.079545   -0.000826
  45 H :    0.160535   -0.001325
  46 H :    0.151876   -0.001315
  47 H :    0.075280   -0.000618
  48 H :    0.090594    0.000228
  49 H :    0.084840    0.000250
  50 H :    0.088928    0.000256
  51 H :    0.053269    0.042414
  52 H :    0.055181    0.043181
  53 H :    0.055754    0.042122
  54 H :    0.058887    0.046116
  55 H :    0.058575    0.046364
  56 H :    0.061702    0.045332
  57 H :    0.053579    0.046677
  58 H :    0.050971    0.046496
  59 H :    0.055890    0.045932
  60 H :    0.075706   -0.000640
  61 H :    0.150738    0.000532
  62 H :    0.152222    0.000676
  63 H :    0.073673   -0.000624
Sum of atomic charges         :   -1.0000000

LOEWDIN ATOMIC CHARGES AND SPIN POPULATIONS
-------------------------------------------
   0 C :   -0.104294    0.459660
   1 C :   -0.018048    0.010725
   2 C :   -0.020633    0.008975
   3 C :   -0.021633    0.008694
   4 C :   -0.022857    0.009101
   5 C :   -0.010116    0.010114
   6 C :   -0.010608    0.010020
   7 C :   -0.009575    0.009994
   8 C :   -0.011330    0.009934
   9 C :   -0.012710    0.010006
  10 C :   -0.010779    0.010097
  11 C :   -0.072191    0.001260
  12 C :   -0.071253    0.001294
  13 C :   -0.072210    0.001260
  14 C :   -0.108829    0.027133
  15 C :   -0.108063    0.026062
  16 C :   -0.107923    0.026132
  17 C :   -0.106749    0.038040
  18 C :   -0.106547    0.037720
  19 C :   -0.106174    0.037195
  20 C :   -0.105482    0.037257
  21 C :   -0.104106    0.036283
  22 C :   -0.104707    0.036491
  23 C :   -0.104151    0.453751
  24 C :   -0.104633    0.458576
  25 C :   -0.015777    0.010799
  26 C :   -0.015578    0.010520
  27 N :   -0.011197    0.007029
  28 H :   -0.010242    0.000538
  29 H :    0.025844   -0.000359
  30 H :   -0.009951    0.000444
  31 H :    0.024106   -0.000300
  32 H :    0.024453   -0.000279
  33 H :   -0.008910    0.000445
  34 H :   -0.009171    0.000440
  35 H :    0.024903   -0.000299
  36 H :   -0.014333    0.000519
  37 H :    0.029093    0.000257
  38 H :    0.028819    0.000235
  39 H :   -0.015733    0.000520
  40 H :    0.028601    0.000253
  41 H :   -0.016445    0.000527
  42 H :   -0.013895    0.000515
  43 H :    0.029666    0.000232
  44 H :    0.029748    0.000227
  45 H :   -0.015614    0.000528
  46 H :   -0.014353    0.000521
  47 H :    0.029434    0.000239
  48 H :    0.033695    0.000170
  49 H :    0.033366    0.000183
  50 H :    0.033719    0.000181
  51 H :    0.043753    0.019287
  52 H :    0.043779    0.019606
  53 H :    0.044043    0.019426
  54 H :    0.045382    0.021829
  55 H :    0.045293    0.022003
  56 H :    0.045691    0.021696
  57 H :    0.044990    0.022038
  58 H :    0.044835    0.021942
  59 H :    0.045399    0.021913
  60 H :    0.025159   -0.000351
  61 H :   -0.010949    0.000544
  62 H :   -0.011139    0.000553
  63 H :    0.025115   -0.000343

  Mayer bond orders larger than 0.100000
B(  0-C , 15-C ) :   1.0827 B(  0-C , 20-C ) :   1.0691 B(  0-C , 21-C ) :   1.0627
B(  0-C , 23-C ) :   0.1984 B(  0-C , 24-C ) :   0.1943 B(  0-C , 27-N ) :   0.1542
B(  1-C ,  4-C ) :   0.1494 B(  1-C , 15-C ) :   0.9639 B(  1-C , 16-C ) :   0.9660
B(  1-C , 28-H ) :   0.7747 B(  1-C , 29-H ) :   0.9809 B(  2-C , 17-C ) :   0.9781
B(  2-C , 21-C ) :   0.9821 B(  2-C , 25-C ) :   0.1462 B(  2-C , 30-H ) :   0.7748
B(  2-C , 31-H ) :   0.9792 B(  3-C , 19-C ) :   0.9784 B(  3-C , 22-C ) :   0.9836
B(  3-C , 26-C ) :   0.1522 B(  3-C , 32-H ) :   0.9738 B(  3-C , 33-H ) :   0.7717
B(  4-C , 18-C ) :   0.9853 B(  4-C , 20-C ) :   0.9818 B(  4-C , 34-H ) :   0.7752
B(  4-C , 35-H ) :   0.9806 B(  5-C ,  7-C ) :   0.1429 B(  5-C , 13-C ) :   0.9468
B(  5-C , 17-C ) :   0.9676 B(  5-C , 36-H ) :   0.7708 B(  5-C , 37-H ) :   0.9755
B(  6-C , 10-C ) :   0.1458 B(  6-C , 11-C ) :   0.9523 B(  6-C , 18-C ) :   0.9636
B(  6-C , 38-H ) :   0.9760 B(  6-C , 39-H ) :   0.7672 B(  7-C , 12-C ) :   0.9477
B(  7-C , 19-C ) :   0.9704 B(  7-C , 40-H ) :   0.9748 B(  7-C , 41-H ) :   0.7715
B(  8-C ,  9-C ) :   0.1491 B(  8-C , 11-C ) :   0.9594 B(  8-C , 20-C ) :   0.9631
B(  8-C , 42-H ) :   0.7644 B(  8-C , 43-H ) :   0.9740 B(  9-C , 13-C ) :   0.9607
B(  9-C , 21-C ) :   0.9676 B(  9-C , 44-H ) :   0.9740 B(  9-C , 45-H ) :   0.7640
B( 10-C , 12-C ) :   0.9560 B( 10-C , 22-C ) :   0.9681 B( 10-C , 46-H ) :   0.7663
B( 10-C , 47-H ) :   0.9782 B( 11-C , 12-C ) :   0.1085 B( 11-C , 13-C ) :   0.1070
B( 11-C , 27-N ) :   1.1035 B( 11-C , 48-H ) :   1.0098 B( 12-C , 13-C ) :   0.1088
B( 12-C , 27-N ) :   1.0954 B( 12-C , 49-H ) :   1.0169 B( 13-C , 27-N ) :   1.1087
B( 13-C , 50-H ) :   1.0122 B( 14-C , 17-C ) :   0.2292 B( 14-C , 19-C ) :   0.2299
B( 14-C , 23-C ) :   1.0535 B( 14-C , 25-C ) :   0.9603 B( 14-C , 26-C ) :   0.9591
B( 14-C , 51-H ) :   1.0300 B( 15-C , 20-C ) :   0.2156 B( 15-C , 21-C ) :   0.2125
B( 15-C , 25-C ) :   0.9590 B( 15-C , 52-H ) :   1.0057 B( 16-C , 18-C ) :   0.2197
B( 16-C , 22-C ) :   0.2135 B( 16-C , 24-C ) :   1.0723 B( 16-C , 26-C ) :   0.9587
B( 16-C , 53-H ) :   1.0139 B( 17-C , 19-C ) :   0.2203 B( 17-C , 23-C ) :   1.0484
B( 17-C , 54-H ) :   1.0169 B( 18-C , 22-C ) :   0.2134 B( 18-C , 24-C ) :   1.0599
B( 18-C , 55-H ) :   1.0058 B( 19-C , 23-C ) :   1.0512 B( 19-C , 56-H ) :   1.0120
B( 20-C , 21-C ) :   0.2125 B( 20-C , 57-H ) :   1.0007 B( 21-C , 58-H ) :   0.9978
B( 22-C , 24-C ) :   1.0686 B( 22-C , 59-H ) :   0.9967 B( 23-C , 24-C ) :   0.1929
B( 23-C , 27-N ) :   0.1626 B( 24-C , 27-N ) :   0.1584 B( 25-C , 60-H ) :   0.9838
B( 25-C , 61-H ) :   0.7759 B( 26-C , 62-H ) :   0.7731 B( 26-C , 63-H ) :   0.9796
B( 28-H , 34-H ) :   0.2251 B( 30-H , 61-H ) :   0.2261 B( 33-H , 62-H ) :   0.2245
B( 36-H , 41-H ) :   0.2435 B( 39-H , 46-H ) :   0.2458 B( 42-H , 45-H ) :   0.2454

FINAL SINGLE POINT ENERGY     -1103.168004383425

DIPOLE MOMENT
-------------
                                X             Y             Z
Electronic contribution:      0.00092       0.00023       1.06706
Nuclear contribution   :      0.00111      -0.00365      -0.32886
                        -----------------------------------------
Total Dipole Moment    :      0.00203      -0.00342       0.73820
                        -----------------------------------------
Magnitude (a.u.)       :      0.73821
Magnitude (Debye)      :      1.87639

Rotational constants in cm-1:     0.009246     0.009141     0.009141
Rotational constants in MHz :   277.183097   274.048600   274.045280

                             ****ORCA TERMINATED NORMALLY****
TOTAL RUN TIME: 0 days 0 hours 4 minutes 51 seconds 689 msec
