                         Program Version 4.2.1 -  RELEASE  -
|  1> # Use EPR-II is a special basis set for epr, autoaux creates a large auxiliary basis
|  2> !PBE EPR-II AUTOAUX RIJCOSX
|  3>
|  4> # use original (unoptimized) cluster xyz
|  5> *xyzfile -1 3 nv.xyz
|  6>
|  7> # Parallelization
|  8> %PAL NPROCS 72 END
|  9>
| 10> # ZFS calculation
| 11> %EPRNMR DTENSOR SSANDSO
| 12>     DSS     UNO
| 13>     DSOC    CP
| 14> END
| 15>
| 16>                          ****END OF INPUT****

CARTESIAN COORDINATES (ANGSTROEM)
---------------------------------
  C      0.398508    1.487140   -2.249811
  C      1.406017    0.376805   -4.258023
  C     -2.052974    2.053125   -2.199697
  C     -0.751506   -2.804421   -2.199804
  C      2.804516    0.751454   -2.199700
  C     -2.418013    0.640453   -0.144983
  C      2.414259   -0.654461   -0.144986
  C     -1.773910   -1.763574   -0.145035
  C      1.763652    1.773841   -0.144933
  C     -0.640347    2.418045   -0.144931
  C      0.654364   -2.414284   -0.145037
  C      1.373435    0.367971    0.395617
  C     -0.368040   -1.373432    0.395566
  C     -1.005402    1.005433    0.395618
  C     -1.409460   -0.377548   -3.737621
  C      0.377716    1.409554   -3.737569
  C      1.031804   -1.031738   -3.737623
  C     -2.417023    0.640958   -1.693673
  C      2.413651   -0.653527   -1.693676
  C     -1.772817   -1.763452   -1.693726
  C      1.763575    1.772794   -1.693623
  C     -0.640807    2.417101   -1.693621
  C      0.653476   -2.413630   -1.693727
  C     -1.487090   -0.398380   -2.249865
  C      1.088618   -1.088598   -2.249867
  C     -1.029209    1.029378   -4.258021
  C     -0.376739   -1.405877   -4.258075
  N      0.000000    0.000000    0.000000
  H      2.382660    0.638466   -3.907906
  H      1.399098    0.374975   -5.328003
  H     -2.065381    2.065564   -3.269544
  H     -2.763783    2.763953   -1.833101
  H     -1.011080   -3.773083   -1.826663
  H     -0.757860   -2.828127   -3.269519
  H      2.821478    0.756022   -3.269548
  H      3.775520    1.011603   -1.833106
  H     -2.690458   -0.332367    0.207581
  H     -3.122421    1.366811    0.203028
  H      3.388291   -0.386728    0.207839
  H      2.154674   -1.632510    0.202756
  H     -2.029058   -2.740992    0.207753
  H     -2.491128   -1.049756    0.202744
  H      1.057392    2.496181    0.207668
  H      2.744904    2.020683    0.203076
  H     -1.359237    3.127705    0.207895
  H      0.336451    2.682251    0.202848
  H      1.633063   -2.163829    0.207562
  H      0.377514   -3.387508    0.202936
  H      1.385496    0.371178    1.465539
  H     -0.371279   -1.385524    1.465488
  H     -1.014241    1.014241    1.465541
  H     -2.380141   -0.637611   -4.105093
  H      0.637830    2.380235   -4.105005
  H      1.742377   -1.742330   -4.105096
  H     -3.396923    0.386074   -2.039696
  H      3.134798   -1.364244   -2.039701
  H     -2.748893   -2.032610   -2.039749
  H      2.032784    2.748868   -2.039611
  H     -0.385872    3.397001   -2.039609
  H      1.364172   -3.134797   -2.039752
  H     -1.024296    1.024496   -5.328007
  H     -1.744100    1.744288   -3.907684
  H     -0.638451   -2.382520   -3.907994
  H     -0.374878   -1.398927   -5.328055

 Total Charge           Charge          ....   -1
 Multiplicity           Mult            ....    3
 Number of Electrons    NEL             ....  206
 Basis Dimension        Dim             ....  728

ORBITAL ENERGIES
----------------
                 SPIN UP ORBITALS
  NO   OCC          E(Eh)            E(eV)
   0   1.0000     -13.855824      -377.0361
   1   1.0000      -9.801636      -266.7161
   2   1.0000      -9.801239      -266.7053
   3   1.0000      -9.801203      -266.7043
   4   1.0000      -9.763026      -265.6654
   5   1.0000      -9.762895      -265.6619
   6   1.0000      -9.762891      -265.6618
   7   1.0000      -9.762840      -265.6604
   8   1.0000      -9.762787      -265.6589
   9   1.0000      -9.762699      -265.6565
  10   1.0000      -9.755857      -265.4704
  11   1.0000      -9.755814      -265.4692
  12   1.0000      -9.755481      -265.4601
  13   1.0000      -9.749109      -265.2868
  14   1.0000      -9.749066      -265.2856
  15   1.0000      -9.749006      -265.2839
  16   1.0000      -9.748416      -265.2679
  17   1.0000      -9.748412      -265.2678
  18   1.0000      -9.748347      -265.2660
  19   1.0000      -9.739939      -265.0372
  20   1.0000      -9.739754      -265.0322
  21   1.0000      -9.739576      -265.0273
  22   1.0000      -9.736011      -264.9303
  23   1.0000      -9.735408      -264.9139
  24   1.0000      -9.735288      -264.9106
  25   1.0000      -9.735018      -264.9033
  26   1.0000      -9.734420      -264.8870
  27   1.0000      -9.734406      -264.8867
  28   1.0000      -0.729761       -19.8578
  29   1.0000      -0.667593       -18.1661
  30   1.0000      -0.652452       -17.7541
  31   1.0000      -0.652315       -17.7504
  32   1.0000      -0.609411       -16.5829
  33   1.0000      -0.598259       -16.2795
  34   1.0000      -0.598009       -16.2726
  35   1.0000      -0.582542       -15.8518
  36   1.0000      -0.582436       -15.8489
  37   1.0000      -0.545807       -14.8522
  38   1.0000      -0.521647       -14.1947
  39   1.0000      -0.521580       -14.1929
  40   1.0000      -0.519014       -14.1231
  41   1.0000      -0.516019       -14.0416
  42   1.0000      -0.515638       -14.0312
  43   1.0000      -0.501973       -13.6594
  44   1.0000      -0.444706       -12.1011
  45   1.0000      -0.444611       -12.0985
  46   1.0000      -0.423897       -11.5348
  47   1.0000      -0.405298       -11.0287
  48   1.0000      -0.405287       -11.0284
  49   1.0000      -0.400346       -10.8940
  50   1.0000      -0.397632       -10.8201
  51   1.0000      -0.384097       -10.4518
  52   1.0000      -0.384035       -10.4501
  53   1.0000      -0.358473        -9.7545
  54   1.0000      -0.358078        -9.7438
  55   1.0000      -0.357852        -9.7376
  56   1.0000      -0.346550        -9.4301
  57   1.0000      -0.312924        -8.5151
  58   1.0000      -0.309066        -8.4101
  59   1.0000      -0.308888        -8.4053
  60   1.0000      -0.301346        -8.2000
  61   1.0000      -0.301242        -8.1972
  62   1.0000      -0.282120        -7.6769
  63   1.0000      -0.279295        -7.6000
  64   1.0000      -0.279246        -7.5987
  65   1.0000      -0.275766        -7.5040
  66   1.0000      -0.275721        -7.5027
  67   1.0000      -0.242729        -6.6050
  68   1.0000      -0.242672        -6.6034
  69   1.0000      -0.238300        -6.4845
  70   1.0000      -0.231149        -6.2899
  71   1.0000      -0.228501        -6.2178
  72   1.0000      -0.226382        -6.1602
  73   1.0000      -0.226293        -6.1577
  74   1.0000      -0.212523        -5.7831
  75   1.0000      -0.212445        -5.7809
  76   1.0000      -0.210187        -5.7195
  77   1.0000      -0.197081        -5.3628
  78   1.0000      -0.190661        -5.1881
  79   1.0000      -0.190630        -5.1873
  80   1.0000      -0.179344        -4.8802
  81   1.0000      -0.179300        -4.8790
  82   1.0000      -0.171507        -4.6669
  83   1.0000      -0.166827        -4.5396
  84   1.0000      -0.166787        -4.5385
  85   1.0000      -0.161139        -4.3848
  86   1.0000      -0.158730        -4.3193
  87   1.0000      -0.156232        -4.2513
  88   1.0000      -0.156189        -4.2501
  89   1.0000      -0.146986        -3.9997
  90   1.0000      -0.146907        -3.9975
  91   1.0000      -0.135145        -3.6775
  92   1.0000      -0.119958        -3.2642
  93   1.0000      -0.119863        -3.2616
  94   1.0000      -0.095578        -2.6008
  95   1.0000      -0.095542        -2.5998
  96   1.0000      -0.092657        -2.5213
  97   1.0000      -0.077144        -2.0992
  98   1.0000      -0.059046        -1.6067
  99   1.0000      -0.056849        -1.5469
 100   1.0000      -0.056574        -1.5395
 101   1.0000       0.001955         0.0532
 102   1.0000       0.047232         1.2852
 103   1.0000       0.047619         1.2958
 104   0.0000       0.096838         2.6351
 105   0.0000       0.113751         3.0953
 106   0.0000       0.116262         3.1636
 107   0.0000       0.117196         3.1891
 108   0.0000       0.124425         3.3858

                 SPIN DOWN ORBITALS
  NO   OCC          E(Eh)            E(eV)
   0   1.0000     -13.855771      -377.0347
   1   1.0000      -9.801590      -266.7148
   2   1.0000      -9.801193      -266.7040
   3   1.0000      -9.801157      -266.7030
   4   1.0000      -9.763259      -265.6718
   5   1.0000      -9.763127      -265.6682
   6   1.0000      -9.763120      -265.6680
   7   1.0000      -9.763074      -265.6668
   8   1.0000      -9.763021      -265.6653
   9   1.0000      -9.762928      -265.6628
  10   1.0000      -9.756257      -265.4812
  11   1.0000      -9.756213      -265.4801
  12   1.0000      -9.755879      -265.4710
  13   1.0000      -9.749003      -265.2838
  14   1.0000      -9.748959      -265.2827
  15   1.0000      -9.748899      -265.2810
  16   1.0000      -9.748309      -265.2650
  17   1.0000      -9.748305      -265.2649
  18   1.0000      -9.748240      -265.2631
  19   1.0000      -9.739783      -265.0330
  20   1.0000      -9.739600      -265.0280
  21   1.0000      -9.739419      -265.0231
  22   1.0000      -9.735818      -264.9251
  23   1.0000      -9.735214      -264.9086
  24   1.0000      -9.735093      -264.9053
  25   1.0000      -9.726392      -264.6686
  26   1.0000      -9.725683      -264.6493
  27   1.0000      -9.725668      -264.6489
  28   1.0000      -0.729140       -19.8409
  29   1.0000      -0.664599       -18.0847
  30   1.0000      -0.650583       -17.7033
  31   1.0000      -0.650437       -17.6993
  32   1.0000      -0.608948       -16.5703
  33   1.0000      -0.597787       -16.2666
  34   1.0000      -0.597533       -16.2597
  35   1.0000      -0.579823       -15.7778
  36   1.0000      -0.579700       -15.7744
  37   1.0000      -0.545202       -14.8357
  38   1.0000      -0.520935       -14.1754
  39   1.0000      -0.520846       -14.1729
  40   1.0000      -0.518338       -14.1047
  41   1.0000      -0.512792       -13.9538
  42   1.0000      -0.512407       -13.9433
  43   1.0000      -0.495622       -13.4865
  44   1.0000      -0.444070       -12.0838
  45   1.0000      -0.443976       -12.0812
  46   1.0000      -0.423684       -11.5290
  47   1.0000      -0.404534       -11.0079
  48   1.0000      -0.404525       -11.0077
  49   1.0000      -0.399261       -10.8645
  50   1.0000      -0.395628       -10.7656
  51   1.0000      -0.381113       -10.3706
  52   1.0000      -0.381048       -10.3688
  53   1.0000      -0.357269        -9.7218
  54   1.0000      -0.356534        -9.7018
  55   1.0000      -0.356289        -9.6951
  56   1.0000      -0.341673        -9.2974
  57   1.0000      -0.310390        -8.4461
  58   1.0000      -0.307529        -8.3683
  59   1.0000      -0.307353        -8.3635
  60   1.0000      -0.297614        -8.0985
  61   1.0000      -0.297482        -8.0949
  62   1.0000      -0.280738        -7.6393
  63   1.0000      -0.277398        -7.5484
  64   1.0000      -0.277360        -7.5473
  65   1.0000      -0.274066        -7.4577
  66   1.0000      -0.274004        -7.4560
  67   1.0000      -0.240991        -6.5577
  68   1.0000      -0.240921        -6.5558
  69   1.0000      -0.236345        -6.4313
  70   1.0000      -0.228944        -6.2299
  71   1.0000      -0.225404        -6.1336
  72   1.0000      -0.224859        -6.1187
  73   1.0000      -0.224771        -6.1163
  74   1.0000      -0.212145        -5.7727
  75   1.0000      -0.212058        -5.7704
  76   1.0000      -0.209944        -5.7129
  77   1.0000      -0.195822        -5.3286
  78   1.0000      -0.187700        -5.1076
  79   1.0000      -0.187683        -5.1071
  80   1.0000      -0.178359        -4.8534
  81   1.0000      -0.178319        -4.8523
  82   1.0000      -0.171147        -4.6571
  83   1.0000      -0.166051        -4.5185
  84   1.0000      -0.166012        -4.5174
  85   1.0000      -0.159833        -4.3493
  86   1.0000      -0.156122        -4.2483
  87   1.0000      -0.154802        -4.2124
  88   1.0000      -0.154756        -4.2111
  89   1.0000      -0.144849        -3.9415
  90   1.0000      -0.144769        -3.9394
  91   1.0000      -0.132051        -3.5933
  92   1.0000      -0.117144        -3.1876
  93   1.0000      -0.117036        -3.1847
  94   1.0000      -0.093197        -2.5360
  95   1.0000      -0.093178        -2.5355
  96   1.0000      -0.090811        -2.4711
  97   1.0000      -0.060944        -1.6584
  98   1.0000      -0.058544        -1.5931
  99   1.0000      -0.056450        -1.5361
 100   1.0000      -0.056175        -1.5286
 101   1.0000       0.023331         0.6349
 102   0.0000       0.082940         2.2569
 103   0.0000       0.083909         2.2833
 104   0.0000       0.097700         2.6586
 105   0.0000       0.117894         3.2081
 106   0.0000       0.119049         3.2395

MULLIKEN ATOMIC CHARGES AND SPIN POPULATIONS
--------------------------------------------
   0 C :    0.887615    0.352906
   1 C :   -0.329281    0.004257
   2 C :   -0.383797   -0.028884
   3 C :   -0.364030   -0.031974
   4 C :   -0.364936   -0.031984
   5 C :   -0.335070   -0.015440
   6 C :   -0.333746   -0.014951
   7 C :   -0.359014   -0.011129
   8 C :   -0.354532   -0.011050
   9 C :   -0.341008   -0.015147
  10 C :   -0.329471   -0.014939
  11 C :   -0.167612    0.009152
  12 C :   -0.167511    0.009157
  13 C :   -0.173923    0.009677
  14 C :   -0.326648    0.037401
  15 C :   -0.326520    0.037296
  16 C :   -0.357738    0.048742
  17 C :   -0.313606    0.101308
  18 C :   -0.330153    0.109589
  19 C :   -0.285428    0.094910
  20 C :   -0.285373    0.094914
  21 C :   -0.313617    0.101223
  22 C :   -0.328908    0.109568
  23 C :    0.887652    0.352941
  24 C :    0.909868    0.323055
  25 C :   -0.371695    0.005204
  26 C :   -0.329937    0.004291
  27 N :    0.389109   -0.017073
  28 H :    0.151406    0.000602
  29 H :    0.074891   -0.000619
  30 H :    0.160684   -0.001503
  31 H :    0.078871   -0.002053
  32 H :    0.069347   -0.001470
  33 H :    0.158304   -0.001175
  34 H :    0.160781   -0.001186
  35 H :    0.068843   -0.001462
  36 H :    0.142874   -0.000705
  37 H :    0.072011   -0.000760
  38 H :    0.068086   -0.000451
  39 H :    0.151167   -0.000822
  40 H :    0.077085   -0.000725
  41 H :    0.159844   -0.001432
  42 H :    0.153260   -0.001388
  43 H :    0.077402   -0.000737
  44 H :    0.072236   -0.000776
  45 H :    0.150263   -0.000777
  46 H :    0.143816   -0.000735
  47 H :    0.068193   -0.000461
  48 H :    0.086554    0.000256
  49 H :    0.086501    0.000252
  50 H :    0.092114    0.000227
  51 H :    0.054714    0.042698
  52 H :    0.054697    0.042695
  53 H :    0.053577    0.042345
  54 H :    0.055876    0.046585
  55 H :    0.060914    0.045700
  56 H :    0.052073    0.046287
  57 H :    0.052066    0.046295
  58 H :    0.055851    0.046598
  59 H :    0.060680    0.045778
  60 H :    0.084282   -0.000644
  61 H :    0.162503    0.000578
  62 H :    0.152712    0.000592
  63 H :    0.074832   -0.000626
Sum of atomic charges         :   -1.0000000

LOEWDIN ATOMIC CHARGES AND SPIN POPULATIONS
-------------------------------------------
   0 C :   -0.104415    0.459150
   1 C :   -0.015364    0.010638
   2 C :   -0.023044    0.009175
   3 C :   -0.021266    0.008802
   4 C :   -0.020929    0.008789
   5 C :   -0.010824    0.009960
   6 C :   -0.009860    0.010073
   7 C :   -0.011737    0.010022
   8 C :   -0.011481    0.010077
   9 C :   -0.011375    0.010011
  10 C :   -0.009512    0.010105
  11 C :   -0.071722    0.001274
  12 C :   -0.071683    0.001277
  13 C :   -0.072474    0.001260
  14 C :   -0.107909    0.026127
  15 C :   -0.107862    0.026116
  16 C :   -0.108959    0.027164
  17 C :   -0.106106    0.037586
  18 C :   -0.106628    0.037634
  19 C :   -0.104152    0.036301
  20 C :   -0.104102    0.036333
  21 C :   -0.106209    0.037585
  22 C :   -0.106504    0.037669
  23 C :   -0.104456    0.459255
  24 C :   -0.104447    0.453292
  25 C :   -0.018567    0.010769
  26 C :   -0.015856    0.010648
  27 N :   -0.011262    0.007028
  28 H :   -0.010929    0.000548
  29 H :    0.025165   -0.000345
  30 H :   -0.009084    0.000439
  31 H :    0.024991   -0.000302
  32 H :    0.024384   -0.000287
  33 H :   -0.009044    0.000443
  34 H :   -0.009861    0.000449
  35 H :    0.024175   -0.000293
  36 H :   -0.013959    0.000514
  37 H :    0.029454    0.000234
  38 H :    0.028614    0.000254
  39 H :   -0.016262    0.000527
  40 H :    0.029407    0.000232
  41 H :   -0.015855    0.000527
  42 H :   -0.014162    0.000521
  43 H :    0.029767    0.000235
  44 H :    0.029168    0.000233
  45 H :   -0.015602    0.000522
  46 H :   -0.014588    0.000520
  47 H :    0.028911    0.000259
  48 H :    0.033523    0.000182
  49 H :    0.033519    0.000182
  50 H :    0.033832    0.000171
  51 H :    0.043884    0.019522
  52 H :    0.043890    0.019519
  53 H :    0.043796    0.019270
  54 H :    0.045155    0.022034
  55 H :    0.045600    0.021750
  56 H :    0.045057    0.021935
  57 H :    0.045073    0.021930
  58 H :    0.045152    0.022029
  59 H :    0.045627    0.021751
  60 H :    0.025954   -0.000361
  61 H :   -0.010128    0.000537
  62 H :   -0.011074    0.000549
  63 H :    0.025155   -0.000346

  Mayer bond orders larger than 0.100000
B(  0-C , 15-C ) :   1.0794 B(  0-C , 20-C ) :   1.0667 B(  0-C , 21-C ) :   1.0646
B(  0-C , 23-C ) :   0.1948 B(  0-C , 24-C ) :   0.1956 B(  0-C , 27-N ) :   0.1553
B(  1-C ,  4-C ) :   0.1501 B(  1-C , 15-C ) :   0.9566 B(  1-C , 16-C ) :   0.9609
B(  1-C , 28-H ) :   0.7729 B(  1-C , 29-H ) :   0.9815 B(  2-C , 17-C ) :   0.9850
B(  2-C , 21-C ) :   0.9849 B(  2-C , 25-C ) :   0.1490 B(  2-C , 30-H ) :   0.7753
B(  2-C , 31-H ) :   0.9809 B(  3-C , 19-C ) :   0.9824 B(  3-C , 22-C ) :   0.9791
B(  3-C , 26-C ) :   0.1495 B(  3-C , 32-H ) :   0.9762 B(  3-C , 33-H ) :   0.7740
B(  4-C , 18-C ) :   0.9792 B(  4-C , 20-C ) :   0.9820 B(  4-C , 34-H ) :   0.7722
B(  4-C , 35-H ) :   0.9762 B(  5-C ,  7-C ) :   0.1459 B(  5-C , 13-C ) :   0.9570
B(  5-C , 17-C ) :   0.9633 B(  5-C , 36-H ) :   0.7655 B(  5-C , 37-H ) :   0.9742
B(  6-C , 10-C ) :   0.1423 B(  6-C , 11-C ) :   0.9458 B(  6-C , 18-C ) :   0.9694
B(  6-C , 38-H ) :   0.9755 B(  6-C , 39-H ) :   0.7720 B(  7-C , 12-C ) :   0.9596
B(  7-C , 19-C ) :   0.9697 B(  7-C , 40-H ) :   0.9760 B(  7-C , 41-H ) :   0.7649
B(  8-C ,  9-C ) :   0.1461 B(  8-C , 11-C ) :   0.9598 B(  8-C , 20-C ) :   0.9704
B(  8-C , 42-H ) :   0.7637 B(  8-C , 43-H ) :   0.9756 B(  9-C , 13-C ) :   0.9568
B(  9-C , 21-C ) :   0.9626 B(  9-C , 44-H ) :   0.9746 B(  9-C , 45-H ) :   0.7661
B( 10-C , 12-C ) :   0.9465 B( 10-C , 22-C ) :   0.9694 B( 10-C , 46-H ) :   0.7711
B( 10-C , 47-H ) :   0.9752 B( 11-C , 12-C ) :   0.1084 B( 11-C , 13-C ) :   0.1077
B( 11-C , 27-N ) :   1.1024 B( 11-C , 48-H ) :   1.0148 B( 12-C , 13-C ) :   0.1078
B( 12-C , 27-N ) :   1.1022 B( 12-C , 49-H ) :   1.0148 B( 13-C , 27-N ) :   1.1045
B( 13-C , 50-H ) :   1.0090 B( 14-C , 17-C ) :   0.2172 B( 14-C , 19-C ) :   0.2112
B( 14-C , 23-C ) :   1.0796 B( 14-C , 25-C ) :   0.9659 B( 14-C , 26-C ) :   0.9567
B( 14-C , 51-H ) :   1.0095 B( 15-C , 20-C ) :   0.2110 B( 15-C , 21-C ) :   0.2173
B( 15-C , 25-C ) :   0.9661 B( 15-C , 52-H ) :   1.0095 B( 16-C , 18-C ) :   0.2287
B( 16-C , 22-C ) :   0.2286 B( 16-C , 24-C ) :   1.0524 B( 16-C , 26-C ) :   0.9610
B( 16-C , 53-H ) :   1.0308 B( 17-C , 19-C ) :   0.2125 B( 17-C , 23-C ) :   1.0651
B( 17-C , 54-H ) :   1.0033 B( 18-C , 22-C ) :   0.2214 B( 18-C , 24-C ) :   1.0521
B( 18-C , 55-H ) :   1.0139 B( 19-C , 23-C ) :   1.0667 B( 19-C , 56-H ) :   0.9966
B( 20-C , 21-C ) :   0.2126 B( 20-C , 57-H ) :   0.9967 B( 21-C , 58-H ) :   1.0034
B( 22-C , 24-C ) :   1.0526 B( 22-C , 59-H ) :   1.0139 B( 23-C , 24-C ) :   0.1960
B( 23-C , 27-N ) :   0.1552 B( 24-C , 27-N ) :   0.1640 B( 25-C , 60-H ) :   0.9809
B( 25-C , 61-H ) :   0.7744 B( 26-C , 62-H ) :   0.7752 B( 26-C , 63-H ) :   0.9816
B( 28-H , 34-H ) :   0.2262 B( 30-H , 61-H ) :   0.2249 B( 33-H , 62-H ) :   0.2241
B( 36-H , 41-H ) :   0.2461 B( 39-H , 46-H ) :   0.2438 B( 42-H , 45-H ) :   0.2464

FINAL SINGLE POINT ENERGY     -1103.168332575094

DIPOLE MOMENT
-------------
                                X             Y             Z
Electronic contribution:      0.00161       0.00039       1.06768
Nuclear contribution   :     -0.00110      -0.00365      -0.32886
                        -----------------------------------------
Total Dipole Moment    :      0.00051      -0.00326       0.73881
                        -----------------------------------------
Magnitude (a.u.)       :      0.73882
Magnitude (Debye)      :      1.87793

Rotational constants in cm-1:     0.009246     0.009141     0.009141
Rotational constants in MHz :   277.183097   274.048600   274.045280

                             ****ORCA TERMINATED NORMALLY****
TOTAL RUN TIME: 0 days 0 hours 4 minutes 47 seconds 115 msec
