                         Program Version 4.2.1 -  RELEASE  -
|  1> # Use EPR-II is a special basis set for epr, autoaux creates a large auxiliary basis
|  2> !PBE EPR-II AUTOAUX RIJCOSX
|  3>
|  4> # use original (unoptimized) cluster xyz
|  5> *xyzfile -1 3 nv.xyz
|  6>
|  7> # Parallelization
|  8> %PAL NPROCS 72 END
|  9>
| 10> # ZFS calculation
| 11> %EPRNMR DTENSOR SSANDSO
| 12>     DSS     UNO
| 13>     DSOC    CP
| 14> END
| 15>
| 16>                          ****END OF INPUT****

CARTESIAN COORDINATES (ANGSTROEM)
---------------------------------
  C      1.052486    1.123685   -2.249811
  C      1.417621   -0.330480   -4.258023
  C     -0.842725    2.778460   -2.199697
  C     -1.984764   -2.119021   -2.199804
  C      2.827595   -0.659316   -2.199700
  C     -1.830590    1.704673   -0.144983
  C      1.820676   -1.715257   -0.144986
  C     -2.395792   -0.719118   -0.145035
  C      2.391585    0.733008   -0.144933
  C      0.575123    2.434383   -0.144931
  C     -0.560988   -2.437673   -0.145037
  C      1.384722   -0.322911    0.395617
  C     -0.972014   -1.037766    0.395566
  C     -0.412728    1.360656    0.395618
  C     -1.421008    0.331447   -3.737621
  C      0.997575    1.065062   -3.737569
  C      0.423612   -1.396301   -3.737623
  C     -1.829478    1.704651   -1.693673
  C      1.820580   -1.714147   -1.693676
  C     -2.394770   -0.719525   -1.693726
  C      2.391023    0.732121   -1.693623
  C      0.574272    2.433767   -1.693621
  C     -0.561463   -2.436678   -1.693727
  C     -1.499291    0.349669   -2.249865
  C      0.446914   -1.473229   -2.249867
  C     -0.422436    1.392996   -4.258021
  C     -0.994980   -1.062280   -4.258075
  N      0.000000    0.000000    0.000000
  H      2.402290   -0.560102   -3.907906
  H      1.410657   -0.328832   -5.328003
  H     -0.847803    2.795278   -3.269544
  H     -1.134520    3.740428   -1.833101
  H     -2.670312   -2.850943   -1.826663
  H     -2.001542   -2.136932   -3.269519
  H      2.844708   -0.663283   -3.269548
  H      3.806578   -0.887613   -1.833106
  H     -2.529449    0.975151    0.207581
  H     -2.109419    2.677319    0.203028
  H      2.805903   -1.938293    0.207839
  H      1.130693   -2.455452    0.202756
  H     -3.081563   -1.460848    0.207753
  H     -2.691830    0.248508    0.202744
  H      2.109228    1.702984    0.207668
  H      3.373332    0.488144    0.203076
  H      0.275650    3.399129    0.207895
  H      1.561128    2.206933    0.202848
  H      0.420211   -2.678147    0.207562
  H     -1.263923   -3.165474    0.202936
  H      1.396871   -0.325768    1.465539
  H     -0.980571   -1.046904    1.465488
  H     -0.416371    1.372590    1.465541
  H     -2.399664    0.559668   -4.105093
  H      1.684551    1.798509   -4.105005
  H      0.715310   -2.357949   -4.105096
  H     -2.813825    1.941786   -2.039696
  H      2.121545   -2.680889   -2.039701
  H     -3.382473   -0.496783   -2.039749
  H      3.088563    1.466038   -2.039611
  H      1.261026    3.177786   -2.039609
  H     -0.274641   -3.407710   -2.039752
  H     -0.420405    1.386374   -5.328007
  H     -0.715907    2.360488   -3.907684
  H     -1.686176   -1.800232   -3.907994
  H     -0.990062   -1.057028   -5.328055

 Total Charge           Charge          ....   -1
 Multiplicity           Mult            ....    3
 Number of Electrons    NEL             ....  206
 Basis Dimension        Dim             ....  728

ORBITAL ENERGIES
----------------
                 SPIN UP ORBITALS
  NO   OCC          E(Eh)            E(eV)
   0   1.0000     -13.855806      -377.0356
   1   1.0000      -9.801626      -266.7158
   2   1.0000      -9.801277      -266.7063
   3   1.0000      -9.801145      -266.7027
   4   1.0000      -9.763060      -265.6664
   5   1.0000      -9.762923      -265.6626
   6   1.0000      -9.762855      -265.6608
   7   1.0000      -9.762828      -265.6600
   8   1.0000      -9.762710      -265.6568
   9   1.0000      -9.762681      -265.6560
  10   1.0000      -9.755830      -265.4696
  11   1.0000      -9.755781      -265.4683
  12   1.0000      -9.755515      -265.4611
  13   1.0000      -9.749179      -265.2886
  14   1.0000      -9.749033      -265.2847
  15   1.0000      -9.748996      -265.2837
  16   1.0000      -9.748420      -265.2680
  17   1.0000      -9.748407      -265.2676
  18   1.0000      -9.748288      -265.2644
  19   1.0000      -9.740069      -265.0408
  20   1.0000      -9.739646      -265.0292
  21   1.0000      -9.739505      -265.0254
  22   1.0000      -9.735875      -264.9266
  23   1.0000      -9.735412      -264.9140
  24   1.0000      -9.735401      -264.9137
  25   1.0000      -9.734993      -264.9026
  26   1.0000      -9.734474      -264.8885
  27   1.0000      -9.734323      -264.8844
  28   1.0000      -0.729751       -19.8575
  29   1.0000      -0.667580       -18.1658
  30   1.0000      -0.652423       -17.7533
  31   1.0000      -0.652330       -17.7508
  32   1.0000      -0.609405       -16.5827
  33   1.0000      -0.598165       -16.2769
  34   1.0000      -0.598100       -16.2751
  35   1.0000      -0.582546       -15.8519
  36   1.0000      -0.582423       -15.8485
  37   1.0000      -0.545805       -14.8521
  38   1.0000      -0.521664       -14.1952
  39   1.0000      -0.521558       -14.1923
  40   1.0000      -0.519012       -14.1230
  41   1.0000      -0.515860       -14.0373
  42   1.0000      -0.515801       -14.0357
  43   1.0000      -0.501971       -13.6593
  44   1.0000      -0.444686       -12.1005
  45   1.0000      -0.444630       -12.0990
  46   1.0000      -0.423894       -11.5347
  47   1.0000      -0.405305       -11.0289
  48   1.0000      -0.405277       -11.0281
  49   1.0000      -0.400342       -10.8939
  50   1.0000      -0.397624       -10.8199
  51   1.0000      -0.384115       -10.4523
  52   1.0000      -0.384005       -10.4493
  53   1.0000      -0.358477        -9.7547
  54   1.0000      -0.358017        -9.7421
  55   1.0000      -0.357901        -9.7390
  56   1.0000      -0.346541        -9.4299
  57   1.0000      -0.312921        -8.5150
  58   1.0000      -0.309014        -8.4087
  59   1.0000      -0.308932        -8.4065
  60   1.0000      -0.301363        -8.2005
  61   1.0000      -0.301219        -8.1966
  62   1.0000      -0.282118        -7.6768
  63   1.0000      -0.279312        -7.6005
  64   1.0000      -0.279225        -7.5981
  65   1.0000      -0.275750        -7.5035
  66   1.0000      -0.275714        -7.5026
  67   1.0000      -0.242720        -6.6047
  68   1.0000      -0.242672        -6.6034
  69   1.0000      -0.238295        -6.4843
  70   1.0000      -0.231144        -6.2897
  71   1.0000      -0.228497        -6.2177
  72   1.0000      -0.226353        -6.1594
  73   1.0000      -0.226312        -6.1583
  74   1.0000      -0.212511        -5.7827
  75   1.0000      -0.212455        -5.7812
  76   1.0000      -0.210185        -5.7194
  77   1.0000      -0.197076        -5.3627
  78   1.0000      -0.190655        -5.1880
  79   1.0000      -0.190631        -5.1873
  80   1.0000      -0.179341        -4.8801
  81   1.0000      -0.179301        -4.8790
  82   1.0000      -0.171501        -4.6668
  83   1.0000      -0.166837        -4.5399
  84   1.0000      -0.166774        -4.5381
  85   1.0000      -0.161140        -4.3848
  86   1.0000      -0.158725        -4.3191
  87   1.0000      -0.156245        -4.2516
  88   1.0000      -0.156183        -4.2499
  89   1.0000      -0.146975        -3.9994
  90   1.0000      -0.146916        -3.9978
  91   1.0000      -0.135143        -3.6774
  92   1.0000      -0.119952        -3.2641
  93   1.0000      -0.119872        -3.2619
  94   1.0000      -0.095579        -2.6008
  95   1.0000      -0.095547        -2.6000
  96   1.0000      -0.092655        -2.5213
  97   1.0000      -0.077135        -2.0990
  98   1.0000      -0.059049        -1.6068
  99   1.0000      -0.056945        -1.5496
 100   1.0000      -0.056476        -1.5368
 101   1.0000       0.001964         0.0534
 102   1.0000       0.047227         1.2851
 103   1.0000       0.047621         1.2958
 104   0.0000       0.096843         2.6352
 105   0.0000       0.113756         3.0955
 106   0.0000       0.116241         3.1631
 107   0.0000       0.117217         3.1896
 108   0.0000       0.124417         3.3855

                 SPIN DOWN ORBITALS
  NO   OCC          E(Eh)            E(eV)
   0   1.0000     -13.855753      -377.0342
   1   1.0000      -9.801580      -266.7145
   2   1.0000      -9.801231      -266.7051
   3   1.0000      -9.801099      -266.7015
   4   1.0000      -9.763293      -265.6727
   5   1.0000      -9.763156      -265.6690
   6   1.0000      -9.763089      -265.6671
   7   1.0000      -9.763057      -265.6663
   8   1.0000      -9.762943      -265.6632
   9   1.0000      -9.762911      -265.6623
  10   1.0000      -9.756229      -265.4805
  11   1.0000      -9.756180      -265.4792
  12   1.0000      -9.755913      -265.4719
  13   1.0000      -9.749072      -265.2857
  14   1.0000      -9.748926      -265.2818
  15   1.0000      -9.748889      -265.2808
  16   1.0000      -9.748313      -265.2651
  17   1.0000      -9.748300      -265.2647
  18   1.0000      -9.748181      -265.2615
  19   1.0000      -9.739915      -265.0366
  20   1.0000      -9.739489      -265.0250
  21   1.0000      -9.739348      -265.0211
  22   1.0000      -9.735681      -264.9214
  23   1.0000      -9.735218      -264.9087
  24   1.0000      -9.735206      -264.9084
  25   1.0000      -9.726365      -264.6678
  26   1.0000      -9.725745      -264.6510
  27   1.0000      -9.725580      -264.6465
  28   1.0000      -0.729130       -19.8406
  29   1.0000      -0.664586       -18.0843
  30   1.0000      -0.650555       -17.7025
  31   1.0000      -0.650452       -17.6997
  32   1.0000      -0.608942       -16.5701
  33   1.0000      -0.597690       -16.2640
  34   1.0000      -0.597626       -16.2622
  35   1.0000      -0.579820       -15.7777
  36   1.0000      -0.579693       -15.7743
  37   1.0000      -0.545199       -14.8356
  38   1.0000      -0.520953       -14.1758
  39   1.0000      -0.520822       -14.1723
  40   1.0000      -0.518336       -14.1046
  41   1.0000      -0.512639       -13.9496
  42   1.0000      -0.512566       -13.9476
  43   1.0000      -0.495619       -13.4865
  44   1.0000      -0.444049       -12.0832
  45   1.0000      -0.443995       -12.0817
  46   1.0000      -0.423681       -11.5289
  47   1.0000      -0.404541       -11.0081
  48   1.0000      -0.404515       -11.0074
  49   1.0000      -0.399258       -10.8644
  50   1.0000      -0.395620       -10.7654
  51   1.0000      -0.381132       -10.3711
  52   1.0000      -0.381016       -10.3680
  53   1.0000      -0.357270        -9.7218
  54   1.0000      -0.356477        -9.7002
  55   1.0000      -0.356337        -9.6964
  56   1.0000      -0.341664        -9.2972
  57   1.0000      -0.310388        -8.4461
  58   1.0000      -0.307475        -8.3668
  59   1.0000      -0.307400        -8.3648
  60   1.0000      -0.297627        -8.0988
  61   1.0000      -0.297463        -8.0944
  62   1.0000      -0.280735        -7.6392
  63   1.0000      -0.277422        -7.5490
  64   1.0000      -0.277332        -7.5466
  65   1.0000      -0.274046        -7.4572
  66   1.0000      -0.274001        -7.4559
  67   1.0000      -0.240980        -6.5574
  68   1.0000      -0.240922        -6.5558
  69   1.0000      -0.236338        -6.4311
  70   1.0000      -0.228939        -6.2297
  71   1.0000      -0.225402        -6.1335
  72   1.0000      -0.224829        -6.1179
  73   1.0000      -0.224791        -6.1169
  74   1.0000      -0.212125        -5.7722
  75   1.0000      -0.212075        -5.7708
  76   1.0000      -0.209941        -5.7128
  77   1.0000      -0.195817        -5.3285
  78   1.0000      -0.187696        -5.1075
  79   1.0000      -0.187683        -5.1071
  80   1.0000      -0.178355        -4.8533
  81   1.0000      -0.178320        -4.8523
  82   1.0000      -0.171140        -4.6570
  83   1.0000      -0.166063        -4.5188
  84   1.0000      -0.165997        -4.5170
  85   1.0000      -0.159835        -4.3493
  86   1.0000      -0.156118        -4.2482
  87   1.0000      -0.154813        -4.2127
  88   1.0000      -0.154752        -4.2110
  89   1.0000      -0.144838        -3.9413
  90   1.0000      -0.144777        -3.9396
  91   1.0000      -0.132049        -3.5932
  92   1.0000      -0.117137        -3.1875
  93   1.0000      -0.117044        -3.1849
  94   1.0000      -0.093195        -2.5360
  95   1.0000      -0.093185        -2.5357
  96   1.0000      -0.090808        -2.4710
  97   1.0000      -0.060936        -1.6582
  98   1.0000      -0.058548        -1.5932
  99   1.0000      -0.056545        -1.5387
 100   1.0000      -0.056080        -1.5260
 101   1.0000       0.023345         0.6352
 102   0.0000       0.082945         2.2571
 103   0.0000       0.083905         2.2832
 104   0.0000       0.097707         2.6587
 105   0.0000       0.117888         3.2079
 106   0.0000       0.119058         3.2397

MULLIKEN ATOMIC CHARGES AND SPIN POPULATIONS
--------------------------------------------
   0 C :    0.911419    0.323652
   1 C :   -0.334501    0.004820
   2 C :   -0.365942   -0.032409
   3 C :   -0.381864   -0.029017
   4 C :   -0.363572   -0.031408
   5 C :   -0.353826   -0.011109
   6 C :   -0.360317   -0.011155
   7 C :   -0.340455   -0.015296
   8 C :   -0.332115   -0.014984
   9 C :   -0.331531   -0.014956
  10 C :   -0.336758   -0.015280
  11 C :   -0.169235    0.009195
  12 C :   -0.173179    0.009685
  13 C :   -0.166288    0.009172
  14 C :   -0.331042    0.038477
  15 C :   -0.357472    0.048562
  16 C :   -0.324420    0.036301
  17 C :   -0.288484    0.096014
  18 C :   -0.285261    0.094094
  19 C :   -0.316112    0.102344
  20 C :   -0.329892    0.109992
  21 C :   -0.329815    0.108769
  22 C :   -0.310038    0.100441
  23 C :    0.888020    0.350682
  24 C :    0.889221    0.354637
  25 C :   -0.324443    0.003798
  26 C :   -0.371049    0.005171
  27 N :    0.389792   -0.017099
  28 H :    0.151068    0.000563
  29 H :    0.075400   -0.000628
  30 H :    0.161917   -0.001184
  31 H :    0.069035   -0.001394
  32 H :    0.078666   -0.002049
  33 H :    0.158262   -0.001484
  34 H :    0.159598   -0.001200
  35 H :    0.068867   -0.001546
  36 H :    0.152506   -0.001367
  37 H :    0.076191   -0.000678
  38 H :    0.078427   -0.000781
  39 H :    0.160281   -0.001399
  40 H :    0.071231   -0.000714
  41 H :    0.150004   -0.000713
  42 H :    0.143927   -0.000705
  43 H :    0.069099   -0.000500
  44 H :    0.067411   -0.000422
  45 H :    0.151283   -0.000849
  46 H :    0.143904   -0.000808
  47 H :    0.072820   -0.000815
  48 H :    0.087651    0.000256
  49 H :    0.091730    0.000224
  50 H :    0.085606    0.000257
  51 H :    0.055347    0.042395
  52 H :    0.053479    0.042360
  53 H :    0.054498    0.042976
  54 H :    0.053912    0.046100
  55 H :    0.051014    0.046434
  56 H :    0.057369    0.046484
  57 H :    0.059949    0.045964
  58 H :    0.061459    0.045476
  59 H :    0.054353    0.046696
  60 H :    0.074285   -0.000616
  61 H :    0.151509    0.000642
  62 H :    0.163222    0.000580
  63 H :    0.083874   -0.000648
Sum of atomic charges         :   -1.0000000

LOEWDIN ATOMIC CHARGES AND SPIN POPULATIONS
-------------------------------------------
   0 C :   -0.104349    0.453436
   1 C :   -0.015585    0.010715
   2 C :   -0.021097    0.008725
   3 C :   -0.023255    0.009173
   4 C :   -0.020787    0.008875
   5 C :   -0.011078    0.010084
   6 C :   -0.012225    0.010012
   7 C :   -0.011038    0.010025
   8 C :   -0.009822    0.010112
   9 C :   -0.009620    0.010031
  10 C :   -0.011098    0.009961
  11 C :   -0.071955    0.001268
  12 C :   -0.072394    0.001260
  13 C :   -0.071474    0.001283
  14 C :   -0.107938    0.026137
  15 C :   -0.108886    0.027157
  16 C :   -0.107917    0.026092
  17 C :   -0.104392    0.036394
  18 C :   -0.104066    0.036273
  19 C :   -0.106431    0.037697
  20 C :   -0.106666    0.037864
  21 C :   -0.106399    0.037398
  22 C :   -0.105803    0.037475
  23 C :   -0.104523    0.458848
  24 C :   -0.104368    0.459460
  25 C :   -0.015177    0.010569
  26 C :   -0.018938    0.010769
  27 N :   -0.011244    0.007028
  28 H :   -0.010922    0.000546
  29 H :    0.025173   -0.000348
  30 H :   -0.009795    0.000450
  31 H :    0.024204   -0.000289
  32 H :    0.025125   -0.000295
  33 H :   -0.008288    0.000434
  34 H :   -0.009909    0.000447
  35 H :    0.024149   -0.000297
  36 H :   -0.014264    0.000521
  37 H :    0.029603    0.000237
  38 H :    0.029605    0.000229
  39 H :   -0.015733    0.000528
  40 H :    0.028993    0.000235
  41 H :   -0.015641    0.000521
  42 H :   -0.014464    0.000519
  43 H :    0.029007    0.000258
  44 H :    0.028572    0.000253
  45 H :   -0.016390    0.000526
  46 H :   -0.013912    0.000515
  47 H :    0.029546    0.000234
  48 H :    0.033615    0.000182
  49 H :    0.033802    0.000170
  50 H :    0.033435    0.000183
  51 H :    0.043988    0.019469
  52 H :    0.043784    0.019278
  53 H :    0.043804    0.019565
  54 H :    0.045243    0.021920
  55 H :    0.044907    0.021940
  56 H :    0.045261    0.022013
  57 H :    0.045516    0.021790
  58 H :    0.045655    0.021717
  59 H :    0.045065    0.022044
  60 H :    0.025141   -0.000343
  61 H :   -0.010971    0.000550
  62 H :   -0.010299    0.000538
  63 H :    0.025922   -0.000361

  Mayer bond orders larger than 0.100000
B(  0-C , 15-C ) :   1.0527 B(  0-C , 20-C ) :   1.0511 B(  0-C , 21-C ) :   1.0518
B(  0-C , 23-C ) :   0.1941 B(  0-C , 24-C ) :   0.1974 B(  0-C , 27-N ) :   0.1637
B(  1-C ,  4-C ) :   0.1482 B(  1-C , 15-C ) :   0.9610 B(  1-C , 16-C ) :   0.9571
B(  1-C , 28-H ) :   0.7744 B(  1-C , 29-H ) :   0.9827 B(  2-C , 17-C ) :   0.9826
B(  2-C , 21-C ) :   0.9789 B(  2-C , 25-C ) :   0.1517 B(  2-C , 30-H ) :   0.7709
B(  2-C , 31-H ) :   0.9749 B(  3-C , 19-C ) :   0.9857 B(  3-C , 22-C ) :   0.9839
B(  3-C , 26-C ) :   0.1485 B(  3-C , 32-H ) :   0.9808 B(  3-C , 33-H ) :   0.7772
B(  4-C , 18-C ) :   0.9819 B(  4-C , 20-C ) :   0.9787 B(  4-C , 34-H ) :   0.7736
B(  4-C , 35-H ) :   0.9777 B(  5-C ,  7-C ) :   0.1456 B(  5-C , 13-C ) :   0.9582
B(  5-C , 17-C ) :   0.9698 B(  5-C , 36-H ) :   0.7649 B(  5-C , 37-H ) :   0.9769
B(  6-C , 10-C ) :   0.1472 B(  6-C , 11-C ) :   0.9604 B(  6-C , 18-C ) :   0.9692
B(  6-C , 38-H ) :   0.9749 B(  6-C , 39-H ) :   0.7643 B(  7-C , 12-C ) :   0.9549
B(  7-C , 19-C ) :   0.9628 B(  7-C , 40-H ) :   0.9751 B(  7-C , 41-H ) :   0.7665
B(  8-C ,  9-C ) :   0.1425 B(  8-C , 11-C ) :   0.9464 B(  8-C , 20-C ) :   0.9685
B(  8-C , 42-H ) :   0.7710 B(  8-C , 43-H ) :   0.9755 B(  9-C , 13-C ) :   0.9464
B(  9-C , 21-C ) :   0.9703 B(  9-C , 44-H ) :   0.9752 B(  9-C , 45-H ) :   0.7719
B( 10-C , 12-C ) :   0.9584 B( 10-C , 22-C ) :   0.9632 B( 10-C , 46-H ) :   0.7648
B( 10-C , 47-H ) :   0.9740 B( 11-C , 12-C ) :   0.1074 B( 11-C , 13-C ) :   0.1085
B( 11-C , 27-N ) :   1.1057 B( 11-C , 48-H ) :   1.0135 B( 12-C , 13-C ) :   0.1081
B( 12-C , 27-N ) :   1.1043 B( 12-C , 49-H ) :   1.0092 B( 13-C , 27-N ) :   1.0987
B( 13-C , 50-H ) :   1.0160 B( 14-C , 17-C ) :   0.2118 B( 14-C , 19-C ) :   0.2186
B( 14-C , 23-C ) :   1.0759 B( 14-C , 25-C ) :   0.9572 B( 14-C , 26-C ) :   0.9665
B( 14-C , 51-H ) :   1.0117 B( 15-C , 20-C ) :   0.2286 B( 15-C , 21-C ) :   0.2290
B( 15-C , 25-C ) :   0.9602 B( 15-C , 52-H ) :   1.0307 B( 16-C , 18-C ) :   0.2113
B( 16-C , 22-C ) :   0.2163 B( 16-C , 24-C ) :   1.0819 B( 16-C , 26-C ) :   0.9650
B( 16-C , 53-H ) :   1.0073 B( 17-C , 19-C ) :   0.2129 B( 17-C , 23-C ) :   1.0680
B( 17-C , 54-H ) :   0.9965 B( 18-C , 22-C ) :   0.2125 B( 18-C , 24-C ) :   1.0649
B( 18-C , 55-H ) :   0.9972 B( 19-C , 23-C ) :   1.0621 B( 19-C , 56-H ) :   1.0047
B( 20-C , 21-C ) :   0.2211 B( 20-C , 57-H ) :   1.0152 B( 21-C , 58-H ) :   1.0129
B( 22-C , 24-C ) :   1.0674 B( 22-C , 59-H ) :   1.0020 B( 23-C , 24-C ) :   0.1947
B( 23-C , 27-N ) :   0.1568 B( 24-C , 27-N ) :   0.1542 B( 25-C , 60-H ) :   0.9804
B( 25-C , 61-H ) :   0.7716 B( 26-C , 62-H ) :   0.7769 B( 26-C , 63-H ) :   0.9811
B( 28-H , 34-H ) :   0.2261 B( 30-H , 61-H ) :   0.2265 B( 33-H , 62-H ) :   0.2227
B( 36-H , 41-H ) :   0.2463 B( 39-H , 46-H ) :   0.2459 B( 42-H , 45-H ) :   0.2437

FINAL SINGLE POINT ENERGY     -1103.168222428901

DIPOLE MOMENT
-------------
                                X             Y             Z
Electronic contribution:      0.00322       0.00454       1.06743
Nuclear contribution   :     -0.00269      -0.00270      -0.32886
                        -----------------------------------------
Total Dipole Moment    :      0.00052       0.00184       0.73857
                        -----------------------------------------
Magnitude (a.u.)       :      0.73857
Magnitude (Debye)      :      1.87731

Rotational constants in cm-1:     0.009246     0.009141     0.009141
Rotational constants in MHz :   277.183097   274.048600   274.045280

                             ****ORCA TERMINATED NORMALLY****
TOTAL RUN TIME: 0 days 0 hours 4 minutes 30 seconds 400 msec
