                         Program Version 4.2.1 -  RELEASE  -
|  1> # Use EPR-II is a special basis set for epr, autoaux creates a large auxiliary basis
|  2> !PBE EPR-II AUTOAUX RIJCOSX
|  3>
|  4> # use original (unoptimized) cluster xyz
|  5> *xyzfile -1 3 nv.xyz
|  6>
|  7> # Parallelization
|  8> %PAL NPROCS 72 END
|  9>
| 10> # ZFS calculation
| 11> %EPRNMR DTENSOR SSANDSO
| 12>     DSS     UNO
| 13>     DSOC    CP
| 14> END
| 15>
| 16>                          ****END OF INPUT****

CARTESIAN COORDINATES (ANGSTROEM)
---------------------------------
  C      0.937277    1.221435   -2.249811
  C      1.443188   -0.189937   -4.258023
  C     -1.111003    2.682479   -2.199697
  C     -1.767507   -2.303358   -2.199804
  C      2.878604   -0.378989   -2.199700
  C     -1.988862    1.517035   -0.144983
  C      1.980033   -1.528540   -0.144986
  C     -2.313770   -0.950484   -0.145035
  C      2.308221    0.963895   -0.144933
  C      0.333742    2.479033   -0.144931
  C     -0.319353   -2.480921   -0.145037
  C      1.409705   -0.185630    0.395617
  C     -0.865614   -1.128043    0.395566
  C     -0.544108    1.313649    0.395618
  C     -1.446653    0.190568   -3.737621
  C      0.888377    1.157713   -3.737569
  C      0.558434   -1.348056   -3.737623
  C     -1.987754    1.517123   -1.693673
  C      1.979829   -1.527445   -1.693676
  C     -2.312713   -0.950789   -1.693726
  C      2.307749    0.962957   -1.693623
  C      0.332956    2.478336   -1.693621
  C     -0.319923   -2.479978   -1.693727
  C     -1.526345    0.201029   -2.249865
  C      0.589163   -1.422329   -2.249867
  C     -0.556940    1.344882   -4.258021
  C     -0.886067   -1.154690   -4.258075
  N      0.000000    0.000000    0.000000
  H      2.445621   -0.321939   -3.907906
  H      1.436095   -0.188980   -5.328003
  H     -1.117706    2.698719   -3.269544
  H     -1.495683    3.611214   -1.833101
  H     -2.378012   -3.098951   -1.826663
  H     -1.782448   -2.322828   -3.269519
  H      2.896023   -0.381259   -3.269548
  H      3.875249   -0.510229   -1.833106
  H     -2.612850    0.722526    0.207581
  H     -2.361685    2.457667    0.203028
  H      2.982378   -1.653933    0.207839
  H      1.365925   -2.332801    0.202756
  H     -2.923537   -1.755859    0.207753
  H     -2.703227   -0.016534    0.202744
  H      1.932150    1.901524    0.207668
  H      3.309242    0.816438    0.203076
  H     -0.058850    3.409780    0.207895
  H      1.337293    2.349323    0.202848
  H      0.680692   -2.624063    0.207562
  H     -0.947566   -3.274118    0.202936
  H      1.422076   -0.187282    1.465539
  H     -0.873235   -1.137975    1.465488
  H     -0.548903    1.325170    1.465541
  H     -2.442966    0.321765   -4.105093
  H      1.500155    1.954964   -4.105005
  H      0.942985   -2.276482   -4.105096
  H     -2.990604    1.656632   -2.039696
  H      2.374102   -2.460032   -2.039701
  H     -3.317492   -0.825932   -2.039749
  H      2.929994    1.761710   -2.039611
  H      0.943476    3.286086   -2.039609
  H      0.060696   -3.418220   -2.039752
  H     -0.554269    1.338492   -5.328007
  H     -0.943828    2.278951   -3.907684
  H     -1.501603   -1.956837   -3.907994
  H     -0.881688   -1.148981   -5.328055

 Total Charge           Charge          ....   -1
 Multiplicity           Mult            ....    3
 Number of Electrons    NEL             ....  206
 Basis Dimension        Dim             ....  728

ORBITAL ENERGIES
----------------
                 SPIN UP ORBITALS
  NO   OCC          E(Eh)            E(eV)
   0   1.0000     -13.855687      -377.0324
   1   1.0000      -9.801416      -266.7101
   2   1.0000      -9.801212      -266.7045
   3   1.0000      -9.801108      -266.7017
   4   1.0000      -9.762896      -265.6619
   5   1.0000      -9.762802      -265.6593
   6   1.0000      -9.762702      -265.6566
   7   1.0000      -9.762675      -265.6559
   8   1.0000      -9.762668      -265.6557
   9   1.0000      -9.762567      -265.6529
  10   1.0000      -9.755791      -265.4686
  11   1.0000      -9.755587      -265.4630
  12   1.0000      -9.755400      -265.4579
  13   1.0000      -9.749145      -265.2877
  14   1.0000      -9.749021      -265.2844
  15   1.0000      -9.748936      -265.2820
  16   1.0000      -9.748570      -265.2721
  17   1.0000      -9.748242      -265.2631
  18   1.0000      -9.748065      -265.2583
  19   1.0000      -9.739873      -265.0354
  20   1.0000      -9.739744      -265.0319
  21   1.0000      -9.739208      -265.0173
  22   1.0000      -9.735677      -264.9212
  23   1.0000      -9.735415      -264.9141
  24   1.0000      -9.735386      -264.9133
  25   1.0000      -9.734583      -264.8915
  26   1.0000      -9.734555      -264.8907
  27   1.0000      -9.734101      -264.8784
  28   1.0000      -0.729675       -19.8555
  29   1.0000      -0.667457       -18.1624
  30   1.0000      -0.652358       -17.7516
  31   1.0000      -0.652266       -17.7491
  32   1.0000      -0.609351       -16.5813
  33   1.0000      -0.598218       -16.2784
  34   1.0000      -0.598006       -16.2726
  35   1.0000      -0.582471       -15.8499
  36   1.0000      -0.582370       -15.8471
  37   1.0000      -0.545778       -14.8514
  38   1.0000      -0.521573       -14.1927
  39   1.0000      -0.521566       -14.1925
  40   1.0000      -0.518974       -14.1220
  41   1.0000      -0.515863       -14.0373
  42   1.0000      -0.515807       -14.0358
  43   1.0000      -0.501956       -13.6589
  44   1.0000      -0.444689       -12.1006
  45   1.0000      -0.444607       -12.0984
  46   1.0000      -0.423874       -11.5342
  47   1.0000      -0.405280       -11.0282
  48   1.0000      -0.405258       -11.0276
  49   1.0000      -0.400287       -10.8924
  50   1.0000      -0.397527       -10.8173
  51   1.0000      -0.384035       -10.4501
  52   1.0000      -0.383977       -10.4485
  53   1.0000      -0.358441        -9.7537
  54   1.0000      -0.357939        -9.7400
  55   1.0000      -0.357918        -9.7395
  56   1.0000      -0.346455        -9.4275
  57   1.0000      -0.312899        -8.5144
  58   1.0000      -0.308955        -8.4071
  59   1.0000      -0.308911        -8.4059
  60   1.0000      -0.301281        -8.1983
  61   1.0000      -0.301246        -8.1973
  62   1.0000      -0.282087        -7.6760
  63   1.0000      -0.279307        -7.6003
  64   1.0000      -0.279180        -7.5969
  65   1.0000      -0.275651        -7.5009
  66   1.0000      -0.275598        -7.4994
  67   1.0000      -0.242668        -6.6033
  68   1.0000      -0.242609        -6.6017
  69   1.0000      -0.238247        -6.4830
  70   1.0000      -0.231068        -6.2877
  71   1.0000      -0.228444        -6.2163
  72   1.0000      -0.226290        -6.1577
  73   1.0000      -0.226252        -6.1566
  74   1.0000      -0.212508        -5.7826
  75   1.0000      -0.212384        -5.7793
  76   1.0000      -0.210136        -5.7181
  77   1.0000      -0.197024        -5.3613
  78   1.0000      -0.190615        -5.1869
  79   1.0000      -0.190604        -5.1866
  80   1.0000      -0.179316        -4.8794
  81   1.0000      -0.179286        -4.8786
  82   1.0000      -0.171421        -4.6646
  83   1.0000      -0.166772        -4.5381
  84   1.0000      -0.166758        -4.5377
  85   1.0000      -0.161145        -4.3850
  86   1.0000      -0.158667        -4.3176
  87   1.0000      -0.156275        -4.2525
  88   1.0000      -0.156170        -4.2496
  89   1.0000      -0.146981        -3.9996
  90   1.0000      -0.146860        -3.9963
  91   1.0000      -0.135109        -3.6765
  92   1.0000      -0.119926        -3.2634
  93   1.0000      -0.119872        -3.2619
  94   1.0000      -0.095604        -2.6015
  95   1.0000      -0.095547        -2.6000
  96   1.0000      -0.092620        -2.5203
  97   1.0000      -0.077046        -2.0965
  98   1.0000      -0.059080        -1.6077
  99   1.0000      -0.056875        -1.5477
 100   1.0000      -0.056521        -1.5380
 101   1.0000       0.002056         0.0559
 102   1.0000       0.047289         1.2868
 103   1.0000       0.047602         1.2953
 104   0.0000       0.096937         2.6378
 105   0.0000       0.113813         3.0970
 106   0.0000       0.116295         3.1646
 107   0.0000       0.117277         3.1913
 108   0.0000       0.124651         3.3919

                 SPIN DOWN ORBITALS
  NO   OCC          E(Eh)            E(eV)
   0   1.0000     -13.855636      -377.0310
   1   1.0000      -9.801370      -266.7088
   2   1.0000      -9.801166      -266.7033
   3   1.0000      -9.801062      -266.7004
   4   1.0000      -9.763128      -265.6682
   5   1.0000      -9.763035      -265.6657
   6   1.0000      -9.762933      -265.6629
   7   1.0000      -9.762906      -265.6622
   8   1.0000      -9.762898      -265.6620
   9   1.0000      -9.762797      -265.6592
  10   1.0000      -9.756192      -265.4795
  11   1.0000      -9.755984      -265.4738
  12   1.0000      -9.755799      -265.4688
  13   1.0000      -9.749038      -265.2848
  14   1.0000      -9.748915      -265.2815
  15   1.0000      -9.748828      -265.2791
  16   1.0000      -9.748464      -265.2692
  17   1.0000      -9.748134      -265.2602
  18   1.0000      -9.747959      -265.2554
  19   1.0000      -9.739718      -265.0312
  20   1.0000      -9.739587      -265.0276
  21   1.0000      -9.739052      -265.0131
  22   1.0000      -9.735482      -264.9159
  23   1.0000      -9.735220      -264.9088
  24   1.0000      -9.735191      -264.9080
  25   1.0000      -9.725922      -264.6558
  26   1.0000      -9.725852      -264.6539
  27   1.0000      -9.725358      -264.6404
  28   1.0000      -0.729054       -19.8386
  29   1.0000      -0.664462       -18.0809
  30   1.0000      -0.650486       -17.7006
  31   1.0000      -0.650394       -17.6981
  32   1.0000      -0.608888       -16.5687
  33   1.0000      -0.597742       -16.2654
  34   1.0000      -0.597533       -16.2597
  35   1.0000      -0.579744       -15.7756
  36   1.0000      -0.579642       -15.7729
  37   1.0000      -0.545171       -14.8348
  38   1.0000      -0.520849       -14.1730
  39   1.0000      -0.520840       -14.1728
  40   1.0000      -0.518298       -14.1036
  41   1.0000      -0.512620       -13.9491
  42   1.0000      -0.512588       -13.9482
  43   1.0000      -0.495601       -13.4860
  44   1.0000      -0.444051       -12.0833
  45   1.0000      -0.443970       -12.0810
  46   1.0000      -0.423660       -11.5284
  47   1.0000      -0.404516       -11.0074
  48   1.0000      -0.404497       -11.0069
  49   1.0000      -0.399203       -10.8629
  50   1.0000      -0.395521       -10.7627
  51   1.0000      -0.381047       -10.3688
  52   1.0000      -0.380991       -10.3673
  53   1.0000      -0.357233        -9.7208
  54   1.0000      -0.356386        -9.6978
  55   1.0000      -0.356368        -9.6973
  56   1.0000      -0.341574        -9.2947
  57   1.0000      -0.310369        -8.4456
  58   1.0000      -0.307425        -8.3655
  59   1.0000      -0.307369        -8.3639
  60   1.0000      -0.297535        -8.0963
  61   1.0000      -0.297489        -8.0951
  62   1.0000      -0.280700        -7.6382
  63   1.0000      -0.277419        -7.5490
  64   1.0000      -0.277286        -7.5453
  65   1.0000      -0.273927        -7.4539
  66   1.0000      -0.273905        -7.4533
  67   1.0000      -0.240922        -6.5558
  68   1.0000      -0.240862        -6.5542
  69   1.0000      -0.236275        -6.4294
  70   1.0000      -0.228862        -6.2277
  71   1.0000      -0.225361        -6.1324
  72   1.0000      -0.224767        -6.1162
  73   1.0000      -0.224727        -6.1151
  74   1.0000      -0.212123        -5.7722
  75   1.0000      -0.212003        -5.7689
  76   1.0000      -0.209893        -5.7115
  77   1.0000      -0.195767        -5.3271
  78   1.0000      -0.187668        -5.1067
  79   1.0000      -0.187655        -5.1064
  80   1.0000      -0.178334        -4.8527
  81   1.0000      -0.178300        -4.8518
  82   1.0000      -0.171062        -4.6548
  83   1.0000      -0.165996        -4.5170
  84   1.0000      -0.165985        -4.5167
  85   1.0000      -0.159843        -4.3495
  86   1.0000      -0.156059        -4.2466
  87   1.0000      -0.154841        -4.2134
  88   1.0000      -0.154740        -4.2107
  89   1.0000      -0.144845        -3.9414
  90   1.0000      -0.144721        -3.9381
  91   1.0000      -0.132014        -3.5923
  92   1.0000      -0.117109        -3.1867
  93   1.0000      -0.117045        -3.1849
  94   1.0000      -0.093234        -2.5370
  95   1.0000      -0.093167        -2.5352
  96   1.0000      -0.090771        -2.4700
  97   1.0000      -0.060847        -1.6557
  98   1.0000      -0.058579        -1.5940
  99   1.0000      -0.056476        -1.5368
 100   1.0000      -0.056124        -1.5272
 101   1.0000       0.023486         0.6391
 102   0.0000       0.083111         2.2616
 103   0.0000       0.083834         2.2812
 104   0.0000       0.097795         2.6611
 105   0.0000       0.117908         3.2084
 106   0.0000       0.119234         3.2445

MULLIKEN ATOMIC CHARGES AND SPIN POPULATIONS
--------------------------------------------
   0 C :    0.928134    0.330392
   1 C :   -0.342250    0.006314
   2 C :   -0.368083   -0.032828
   3 C :   -0.383138   -0.030236
   4 C :   -0.356266   -0.029516
   5 C :   -0.357092   -0.011988
   6 C :   -0.362781   -0.011768
   7 C :   -0.337155   -0.015200
   8 C :   -0.336179   -0.015330
   9 C :   -0.342521   -0.014793
  10 C :   -0.348072   -0.014448
  11 C :   -0.175135    0.009408
  12 C :   -0.163761    0.009628
  13 C :   -0.159380    0.009524
  14 C :   -0.338895    0.040305
  15 C :   -0.358246    0.046259
  16 C :   -0.343148    0.035128
  17 C :   -0.302814    0.099441
  18 C :   -0.299601    0.094088
  19 C :   -0.314231    0.104335
  20 C :   -0.330919    0.109093
  21 C :   -0.326985    0.104953
  22 C :   -0.300198    0.097819
  23 C :    0.888595    0.345422
  24 C :    0.905266    0.356984
  25 C :   -0.318176    0.003306
  26 C :   -0.354665    0.004592
  27 N :    0.392491   -0.017328
  28 H :    0.150621    0.000491
  29 H :    0.075889   -0.000681
  30 H :    0.165142   -0.001247
  31 H :    0.071609   -0.001325
  32 H :    0.078033   -0.001816
  33 H :    0.158577   -0.001351
  34 H :    0.155266   -0.001280
  35 H :    0.067827   -0.001842
  36 H :    0.150598   -0.001126
  37 H :    0.073785   -0.000515
  38 H :    0.079259   -0.000876
  39 H :    0.159677   -0.001061
  40 H :    0.066904   -0.000548
  41 H :    0.150250   -0.000651
  42 H :    0.143434   -0.000548
  43 H :    0.070209   -0.000645
  44 H :    0.071935   -0.000424
  45 H :    0.155399   -0.001040
  46 H :    0.149371   -0.001198
  47 H :    0.077380   -0.000856
  48 H :    0.091326    0.000265
  49 H :    0.087130    0.000223
  50 H :    0.083412    0.000244
  51 H :    0.054586    0.041823
  52 H :    0.053905    0.042556
  53 H :    0.058561    0.043339
  54 H :    0.058215    0.045802
  55 H :    0.053105    0.046394
  56 H :    0.058702    0.046395
  57 H :    0.056986    0.046185
  58 H :    0.062250    0.045183
  59 H :    0.054551    0.046429
  60 H :    0.073413   -0.000620
  61 H :    0.149285    0.000746
  62 H :    0.158380    0.000638
  63 H :    0.080231   -0.000617
Sum of atomic charges         :   -1.0000000

LOEWDIN ATOMIC CHARGES AND SPIN POPULATIONS
-------------------------------------------
   0 C :   -0.103569    0.455023
   1 C :   -0.015913    0.010972
   2 C :   -0.021702    0.008654
   3 C :   -0.022773    0.008962
   4 C :   -0.020389    0.009183
   5 C :   -0.010407    0.010101
   6 C :   -0.013259    0.009994
   7 C :   -0.009831    0.010062
   8 C :   -0.010473    0.010065
   9 C :   -0.010161    0.009891
  10 C :   -0.011849    0.009888
  11 C :   -0.072592    0.001241
  12 C :   -0.071566    0.001268
  13 C :   -0.070910    0.001316
  14 C :   -0.107511    0.026044
  15 C :   -0.108771    0.027032
  16 C :   -0.108854    0.026071
  17 C :   -0.105350    0.036787
  18 C :   -0.104621    0.036455
  19 C :   -0.106510    0.037825
  20 C :   -0.106594    0.038131
  21 C :   -0.105825    0.036810
  22 C :   -0.105005    0.036822
  23 C :   -0.104760    0.457739
  24 C :   -0.104132    0.459709
  25 C :   -0.015200    0.010421
  26 C :   -0.017549    0.010625
  27 N :   -0.011138    0.007031
  28 H :   -0.010943    0.000541
  29 H :    0.025122   -0.000358
  30 H :   -0.009583    0.000450
  31 H :    0.024393   -0.000279
  32 H :    0.024943   -0.000287
  33 H :   -0.008482    0.000438
  34 H :   -0.010068    0.000440
  35 H :    0.023940   -0.000304
  36 H :   -0.014483    0.000522
  37 H :    0.029225    0.000242
  38 H :    0.029821    0.000224
  39 H :   -0.015397    0.000529
  40 H :    0.028436    0.000240
  41 H :   -0.015955    0.000518
  42 H :   -0.014183    0.000517
  43 H :    0.029171    0.000250
  44 H :    0.028993    0.000249
  45 H :   -0.016377    0.000527
  46 H :   -0.013826    0.000516
  47 H :    0.029914    0.000234
  48 H :    0.033885    0.000179
  49 H :    0.033417    0.000171
  50 H :    0.033230    0.000187
  51 H :    0.043944    0.019348
  52 H :    0.043762    0.019342
  53 H :    0.043902    0.019639
  54 H :    0.045434    0.021910
  55 H :    0.044869    0.021939
  56 H :    0.045198    0.022008
  57 H :    0.045142    0.021890
  58 H :    0.045711    0.021689
  59 H :    0.045083    0.021973
  60 H :    0.025120   -0.000344
  61 H :   -0.011085    0.000555
  62 H :   -0.010679    0.000542
  63 H :    0.025624   -0.000356

  Mayer bond orders larger than 0.100000
B(  0-C , 15-C ) :   1.0565 B(  0-C , 20-C ) :   1.0413 B(  0-C , 21-C ) :   1.0507
B(  0-C , 23-C ) :   0.1920 B(  0-C , 24-C ) :   0.1986 B(  0-C , 27-N ) :   0.1600
B(  1-C ,  4-C ) :   0.1418 B(  1-C , 15-C ) :   0.9588 B(  1-C , 16-C ) :   0.9643
B(  1-C , 28-H ) :   0.7781 B(  1-C , 29-H ) :   0.9859 B(  2-C , 17-C ) :   0.9845
B(  2-C , 21-C ) :   0.9767 B(  2-C , 25-C ) :   0.1532 B(  2-C , 30-H ) :   0.7686
B(  2-C , 31-H ) :   0.9726 B(  3-C , 19-C ) :   0.9835 B(  3-C , 22-C ) :   0.9782
B(  3-C , 26-C ) :   0.1496 B(  3-C , 32-H ) :   0.9796 B(  3-C , 33-H ) :   0.7761
B(  4-C , 18-C ) :   0.9830 B(  4-C , 20-C ) :   0.9772 B(  4-C , 34-H ) :   0.7774
B(  4-C , 35-H ) :   0.9822 B(  5-C ,  7-C ) :   0.1480 B(  5-C , 13-C ) :   0.9495
B(  5-C , 17-C ) :   0.9642 B(  5-C , 36-H ) :   0.7693 B(  5-C , 37-H ) :   0.9803
B(  6-C , 10-C ) :   0.1532 B(  6-C , 11-C ) :   0.9601 B(  6-C , 18-C ) :   0.9635
B(  6-C , 38-H ) :   0.9735 B(  6-C , 39-H ) :   0.7648 B(  7-C , 12-C ) :   0.9456
B(  7-C , 19-C ) :   0.9653 B(  7-C , 40-H ) :   0.9780 B(  7-C , 41-H ) :   0.7684
B(  8-C ,  9-C ) :   0.1450 B(  8-C , 11-C ) :   0.9491 B(  8-C , 20-C ) :   0.9665
B(  8-C , 42-H ) :   0.7700 B(  8-C , 43-H ) :   0.9752 B(  9-C , 13-C ) :   0.9518
B(  9-C , 21-C ) :   0.9687 B(  9-C , 44-H ) :   0.9741 B(  9-C , 45-H ) :   0.7700
B( 10-C , 12-C ) :   0.9607 B( 10-C , 22-C ) :   0.9620 B( 10-C , 46-H ) :   0.7637
B( 10-C , 47-H ) :   0.9741 B( 11-C , 12-C ) :   0.1065 B( 11-C , 13-C ) :   0.1088
B( 11-C , 27-N ) :   1.1127 B( 11-C , 48-H ) :   1.0103 B( 12-C , 13-C ) :   0.1089
B( 12-C , 27-N ) :   1.1021 B( 12-C , 49-H ) :   1.0116 B( 13-C , 27-N ) :   1.0924
B( 13-C , 50-H ) :   1.0179 B( 14-C , 17-C ) :   0.2182 B( 14-C , 19-C ) :   0.2219
B( 14-C , 23-C ) :   1.0661 B( 14-C , 25-C ) :   0.9613 B( 14-C , 26-C ) :   0.9628
B( 14-C , 51-H ) :   1.0178 B( 15-C , 20-C ) :   0.2302 B( 15-C , 21-C ) :   0.2308
B( 15-C , 25-C ) :   0.9570 B( 15-C , 52-H ) :   1.0269 B( 16-C , 18-C ) :   0.2170
B( 16-C , 22-C ) :   0.2160 B( 16-C , 24-C ) :   1.0791 B( 16-C , 26-C ) :   0.9621
B( 16-C , 53-H ) :   1.0047 B( 17-C , 19-C ) :   0.2154 B( 17-C , 23-C ) :   1.0667
B( 17-C , 54-H ) :   0.9998 B( 18-C , 22-C ) :   0.2126 B( 18-C , 24-C ) :   1.0577
B( 18-C , 55-H ) :   1.0002 B( 19-C , 23-C ) :   1.0568 B( 19-C , 56-H ) :   1.0086
B( 20-C , 21-C ) :   0.2175 B( 20-C , 57-H ) :   1.0192 B( 21-C , 58-H ) :   1.0093
B( 22-C , 24-C ) :   1.0706 B( 22-C , 59-H ) :   0.9986 B( 23-C , 24-C ) :   0.1942
B( 23-C , 27-N ) :   0.1605 B( 24-C , 27-N ) :   0.1555 B( 25-C , 60-H ) :   0.9782
B( 25-C , 61-H ) :   0.7704 B( 26-C , 62-H ) :   0.7772 B( 26-C , 63-H ) :   0.9808
B( 28-H , 34-H ) :   0.2265 B( 30-H , 61-H ) :   0.2270 B( 33-H , 62-H ) :   0.2236
B( 36-H , 41-H ) :   0.2444 B( 39-H , 46-H ) :   0.2439 B( 42-H , 45-H ) :   0.2427

FINAL SINGLE POINT ENERGY     -1103.167877076890

DIPOLE MOMENT
-------------
                                X             Y             Z
Electronic contribution:     -0.00419       0.00573       1.06644
Nuclear contribution   :     -0.00242      -0.00295      -0.32886
                        -----------------------------------------
Total Dipole Moment    :     -0.00660       0.00278       0.73758
                        -----------------------------------------
Magnitude (a.u.)       :      0.73761
Magnitude (Debye)      :      1.87487

Rotational constants in cm-1:     0.009246     0.009141     0.009141
Rotational constants in MHz :   277.183097   274.048600   274.045280

                             ****ORCA TERMINATED NORMALLY****
TOTAL RUN TIME: 0 days 0 hours 5 minutes 0 seconds 886 msec
