                         Program Version 4.2.1 -  RELEASE  -
|  1>
|  2> # specify functional, basis set, and geometry optimzation
|  3> ! PBE def2-TZVP Opt
|  4>
|  5> # specify geometry, charge, and multiplicity (2S+1)
|  6> *xyzfile -1 3 nv_cluster.xyz
|  7>
|  8> # Parallelization
|  9> %PAL NPROCS 72 END
| 10>
| 11>                          ****END OF INPUT****
 Total Charge           Charge          ....   -1
 Multiplicity           Mult            ....    3
 Number of Electrons    NEL             ....  206
FINAL SINGLE POINT ENERGY     -1103.350324552941
FINAL SINGLE POINT ENERGY     -1103.481227827117
FINAL SINGLE POINT ENERGY     -1103.582135705866
FINAL SINGLE POINT ENERGY     -1103.658950351897
FINAL SINGLE POINT ENERGY     -1103.716931631012
FINAL SINGLE POINT ENERGY     -1103.760777453190
FINAL SINGLE POINT ENERGY     -1103.794467996350
FINAL SINGLE POINT ENERGY     -1103.821038884820
FINAL SINGLE POINT ENERGY     -1103.842519276345
FINAL SINGLE POINT ENERGY     -1103.860118319601
FINAL SINGLE POINT ENERGY     -1103.886208220186
FINAL SINGLE POINT ENERGY     -1103.895517408964
FINAL SINGLE POINT ENERGY     -1103.902771582377
FINAL SINGLE POINT ENERGY     -1103.908214484379
FINAL SINGLE POINT ENERGY     -1103.912019094999
FINAL SINGLE POINT ENERGY     -1103.914319713663
FINAL SINGLE POINT ENERGY     -1103.915257588068
FINAL SINGLE POINT ENERGY     -1103.915353804538
FINAL SINGLE POINT ENERGY     -1103.915408416865
                    ***********************HURRAY********************

CARTESIAN COORDINATES (ANGSTROEM)
---------------------------------
  C      8.193948    6.117086    8.194367
  C      8.141002    8.141623    9.849253
  C      9.825998    6.146201    6.146429
  C      6.146163    9.826134    6.145793
  C      6.146078    6.146576    9.825994
  C      8.091380    6.155056    4.463239
  C      4.463603    6.156163    8.090245
  C      6.156236    8.090163    4.463603
  C      6.155199    4.463282    8.091456
  C      8.090314    4.463644    6.156306
  C      4.463241    8.091304    6.155135
  C      5.314771    5.314497    7.092513
  C      5.314582    7.092425    5.314768
  C      7.092510    5.314680    5.314589
  C      8.981276    8.980872    7.159150
  C      8.980884    7.159347    8.981364
  C      7.159157    8.981359    8.980794
  C      8.951045    7.128217    5.324175
  C      5.324449    7.128569    8.950568
  C      7.128460    8.950730    5.324429
  C      7.128209    5.324351    8.951146
  C      8.950676    5.324618    7.128554
  C      5.324166    8.951208    7.128111
  C      8.194270    8.193967    6.116912
  C      6.116918    8.194393    8.193847
  C      9.849253    8.141151    8.141451
  C      8.141221    9.849258    8.140751
  N      6.087615    6.087537    6.087617
  H      7.681102    7.681984   10.718421
  H      8.856658    8.857332   10.292919
  H     10.695967    6.604127    6.604525
  H     10.265435    5.428106    5.428933
  H      5.428398   10.264816    5.427477
  H      6.603555   10.696949    6.602979
  H      6.603990    6.604729   10.695937
  H      5.428036    5.429042   10.265454
  H      7.664470    6.601246    3.573437
  H      8.793898    5.415976    4.042165
  H      4.039452    5.418364    8.792148
  H      3.576946    6.605232    7.660606
  H      5.418391    8.791872    4.039224
  H      6.605485    7.660381    3.577122
  H      6.601520    3.573543    7.664567
  H      5.416137    4.042129    8.793943
  H      8.792175    4.039402    5.418521
  H      7.660686    3.577057    6.605510
  H      3.573614    7.664256    6.601508
  H      4.041942    8.793632    5.416012
  H      4.607894    4.607774    6.574265
  H      4.607915    6.574165    4.607841
  H      6.574262    4.607693    4.607976
  H      9.692241    9.691572    6.647997
  H      9.691532    6.648211    9.692382
  H      6.648004    9.692435    9.691383
  H      9.649454    7.633409    4.596222
  H      4.596130    7.633718    9.648675
  H      7.633610    9.648792    4.596072
  H      7.633411    4.596487    9.649642
  H      9.648864    4.596383    7.633713
  H      4.596182    9.649579    7.633304
  H     10.292946    8.856942    8.857007
  H     10.718390    7.681256    7.681756
  H      7.680918   10.717641    7.680217
  H      8.856627   10.293641    8.856240

 Multiplicity           Mult            ....    3
 Number of Electrons    NEL             ....  206
 Basis Dimension        Dim             .... 1084

ORBITAL ENERGIES
----------------
                 SPIN UP ORBITALS
  NO   OCC          E(Eh)            E(eV)
   0   1.0000     -13.849269      -376.8578
   1   1.0000      -9.794778      -266.5295
   2   1.0000      -9.794777      -266.5294
   3   1.0000      -9.794771      -266.5293
   4   1.0000      -9.758996      -265.5558
   5   1.0000      -9.758983      -265.5554
   6   1.0000      -9.758980      -265.5553
   7   1.0000      -9.758930      -265.5540
   8   1.0000      -9.758916      -265.5536
   9   1.0000      -9.758915      -265.5536
  10   1.0000      -9.753652      -265.4104
  11   1.0000      -9.753637      -265.4100
  12   1.0000      -9.753630      -265.4098
  13   1.0000      -9.750112      -265.3140
  14   1.0000      -9.750108      -265.3139
  15   1.0000      -9.750105      -265.3139
  16   1.0000      -9.749936      -265.3092
  17   1.0000      -9.749932      -265.3091
  18   1.0000      -9.749929      -265.3091
  19   1.0000      -9.742406      -265.1043
  20   1.0000      -9.742362      -265.1031
  21   1.0000      -9.742359      -265.1031
  22   1.0000      -9.739149      -265.0157
  23   1.0000      -9.739141      -265.0155
  24   1.0000      -9.739103      -265.0145
  25   1.0000      -9.732002      -264.8212
  26   1.0000      -9.732000      -264.8212
  27   1.0000      -9.731985      -264.8208
  28   1.0000      -0.709950       -19.3187
  29   1.0000      -0.644103       -17.5269
  30   1.0000      -0.636314       -17.3150
  31   1.0000      -0.636312       -17.3149
  32   1.0000      -0.609519       -16.5859
  33   1.0000      -0.573436       -15.6040
  34   1.0000      -0.573435       -15.6040
  35   1.0000      -0.552772       -15.0417
  36   1.0000      -0.552772       -15.0417
  37   1.0000      -0.523064       -14.2333
  38   1.0000      -0.523062       -14.2332
  39   1.0000      -0.521546       -14.1920
  40   1.0000      -0.521142       -14.1810
  41   1.0000      -0.476100       -12.9553
  42   1.0000      -0.468974       -12.7614
  43   1.0000      -0.468973       -12.7614
  44   1.0000      -0.413408       -11.2494
  45   1.0000      -0.413403       -11.2493
  46   1.0000      -0.400126       -10.8880
  47   1.0000      -0.400119       -10.8878
  48   1.0000      -0.398579       -10.8459
  49   1.0000      -0.392934       -10.6923
  50   1.0000      -0.386760       -10.5243
  51   1.0000      -0.386742       -10.5238
  52   1.0000      -0.346914        -9.4400
  53   1.0000      -0.338770        -9.2184
  54   1.0000      -0.326642        -8.8884
  55   1.0000      -0.326641        -8.8884
  56   1.0000      -0.306921        -8.3518
  57   1.0000      -0.299919        -8.1612
  58   1.0000      -0.299913        -8.1611
  59   1.0000      -0.298065        -8.1108
  60   1.0000      -0.292507        -7.9595
  61   1.0000      -0.292506        -7.9595
  62   1.0000      -0.254784        -6.9330
  63   1.0000      -0.253447        -6.8966
  64   1.0000      -0.253439        -6.8964
  65   1.0000      -0.244413        -6.6508
  66   1.0000      -0.244406        -6.6506
  67   1.0000      -0.241354        -6.5676
  68   1.0000      -0.238429        -6.4880
  69   1.0000      -0.229072        -6.2334
  70   1.0000      -0.229068        -6.2332
  71   1.0000      -0.228682        -6.2228
  72   1.0000      -0.224853        -6.1186
  73   1.0000      -0.224851        -6.1185
  74   1.0000      -0.205536        -5.5929
  75   1.0000      -0.205536        -5.5929
  76   1.0000      -0.202199        -5.5021
  77   1.0000      -0.201577        -5.4852
  78   1.0000      -0.196528        -5.3478
  79   1.0000      -0.196526        -5.3478
  80   1.0000      -0.181521        -4.9394
  81   1.0000      -0.181512        -4.9392
  82   1.0000      -0.178144        -4.8476
  83   1.0000      -0.178142        -4.8475
  84   1.0000      -0.176483        -4.8023
  85   1.0000      -0.167842        -4.5672
  86   1.0000      -0.166164        -4.5216
  87   1.0000      -0.151973        -4.1354
  88   1.0000      -0.151969        -4.1353
  89   1.0000      -0.147092        -4.0026
  90   1.0000      -0.147090        -4.0025
  91   1.0000      -0.138511        -3.7691
  92   1.0000      -0.126024        -3.4293
  93   1.0000      -0.126016        -3.4291
  94   1.0000      -0.122905        -3.3444
  95   1.0000      -0.116924        -3.1817
  96   1.0000      -0.116923        -3.1816
  97   1.0000      -0.098720        -2.6863
  98   1.0000      -0.097191        -2.6447
  99   1.0000      -0.097190        -2.6447
 100   1.0000      -0.061032        -1.6608
 101   1.0000      -0.001019        -0.0277
 102   1.0000       0.039140         1.0651
 103   1.0000       0.039144         1.0652
 104   0.0000       0.109290         2.9739
 105   0.0000       0.127333         3.4649
 106   0.0000       0.127334         3.4649
 107   0.0000       0.128552         3.4981
 108   0.0000       0.132098         3.5946

                 SPIN DOWN ORBITALS
  NO   OCC          E(Eh)            E(eV)
   0   1.0000     -13.849308      -376.8588
   1   1.0000      -9.794750      -266.5287
   2   1.0000      -9.794749      -266.5287
   3   1.0000      -9.794743      -266.5285
   4   1.0000      -9.759373      -265.5660
   5   1.0000      -9.759360      -265.5657
   6   1.0000      -9.759357      -265.5656
   7   1.0000      -9.759307      -265.5643
   8   1.0000      -9.759293      -265.5639
   9   1.0000      -9.759292      -265.5638
  10   1.0000      -9.754107      -265.4227
  11   1.0000      -9.754092      -265.4223
  12   1.0000      -9.754085      -265.4221
  13   1.0000      -9.749982      -265.3105
  14   1.0000      -9.749978      -265.3104
  15   1.0000      -9.749975      -265.3103
  16   1.0000      -9.749805      -265.3057
  17   1.0000      -9.749801      -265.3056
  18   1.0000      -9.749799      -265.3055
  19   1.0000      -9.742206      -265.0989
  20   1.0000      -9.742162      -265.0977
  21   1.0000      -9.742159      -265.0976
  22   1.0000      -9.738925      -265.0096
  23   1.0000      -9.738917      -265.0094
  24   1.0000      -9.738879      -265.0084
  25   1.0000      -9.722935      -264.5745
  26   1.0000      -9.722933      -264.5745
  27   1.0000      -9.722920      -264.5741
  28   1.0000      -0.709628       -19.3099
  29   1.0000      -0.641308       -17.4509
  30   1.0000      -0.635196       -17.2846
  31   1.0000      -0.635194       -17.2845
  32   1.0000      -0.609078       -16.5739
  33   1.0000      -0.568881       -15.4800
  34   1.0000      -0.568881       -15.4800
  35   1.0000      -0.552338       -15.0299
  36   1.0000      -0.552337       -15.0299
  37   1.0000      -0.522580       -14.2201
  38   1.0000      -0.522577       -14.2200
  39   1.0000      -0.520601       -14.1663
  40   1.0000      -0.519400       -14.1336
  41   1.0000      -0.469206       -12.7678
  42   1.0000      -0.464497       -12.6396
  43   1.0000      -0.464496       -12.6396
  44   1.0000      -0.413020       -11.2388
  45   1.0000      -0.413016       -11.2387
  46   1.0000      -0.399146       -10.8613
  47   1.0000      -0.399140       -10.8611
  48   1.0000      -0.397588       -10.8189
  49   1.0000      -0.391227       -10.6458
  50   1.0000      -0.384559       -10.4644
  51   1.0000      -0.384541       -10.4639
  52   1.0000      -0.345612        -9.4046
  53   1.0000      -0.337828        -9.1928
  54   1.0000      -0.323804        -8.8112
  55   1.0000      -0.323804        -8.8111
  56   1.0000      -0.305902        -8.3240
  57   1.0000      -0.297023        -8.0824
  58   1.0000      -0.297018        -8.0823
  59   1.0000      -0.294224        -8.0062
  60   1.0000      -0.290222        -7.8973
  61   1.0000      -0.290220        -7.8973
  62   1.0000      -0.252822        -6.8796
  63   1.0000      -0.252185        -6.8623
  64   1.0000      -0.252178        -6.8621
  65   1.0000      -0.242801        -6.6070
  66   1.0000      -0.242795        -6.6068
  67   1.0000      -0.237810        -6.4711
  68   1.0000      -0.236720        -6.4415
  69   1.0000      -0.226461        -6.1623
  70   1.0000      -0.226458        -6.1622
  71   1.0000      -0.226245        -6.1564
  72   1.0000      -0.223949        -6.0940
  73   1.0000      -0.223947        -6.0939
  74   1.0000      -0.204963        -5.5773
  75   1.0000      -0.204961        -5.5773
  76   1.0000      -0.201150        -5.4736
  77   1.0000      -0.201062        -5.4712
  78   1.0000      -0.194303        -5.2873
  79   1.0000      -0.194302        -5.2872
  80   1.0000      -0.180766        -4.9189
  81   1.0000      -0.180758        -4.9187
  82   1.0000      -0.176799        -4.8109
  83   1.0000      -0.176796        -4.8109
  84   1.0000      -0.175434        -4.7738
  85   1.0000      -0.167583        -4.5602
  86   1.0000      -0.163624        -4.4524
  87   1.0000      -0.150044        -4.0829
  88   1.0000      -0.150041        -4.0828
  89   1.0000      -0.145356        -3.9553
  90   1.0000      -0.145354        -3.9553
  91   1.0000      -0.135995        -3.7006
  92   1.0000      -0.123446        -3.3591
  93   1.0000      -0.123438        -3.3589
  94   1.0000      -0.120895        -3.2897
  95   1.0000      -0.114337        -3.1113
  96   1.0000      -0.114336        -3.1112
  97   1.0000      -0.097820        -2.6618
  98   1.0000      -0.096526        -2.6266
  99   1.0000      -0.096526        -2.6266
 100   1.0000      -0.049850        -1.3565
 101   1.0000       0.026693         0.7264
 102   0.0000       0.080937         2.2024
 103   0.0000       0.080940         2.2025
 104   0.0000       0.111296         3.0285
 105   0.0000       0.129994         3.5373
 106   0.0000       0.131361         3.5745

MULLIKEN ATOMIC CHARGES AND SPIN POPULATIONS
--------------------------------------------
   0 C :    0.010566    0.446382
   1 C :   -0.107805    0.010924
   2 C :   -0.095435   -0.011941
   3 C :   -0.095731   -0.011943
   4 C :   -0.095427   -0.011941
   5 C :   -0.126951   -0.019168
   6 C :   -0.126669   -0.019116
   7 C :   -0.126685   -0.019124
   8 C :   -0.126946   -0.019167
   9 C :   -0.126670   -0.019115
  10 C :   -0.126967   -0.019174
  11 C :   -0.005767    0.013961
  12 C :   -0.005748    0.013974
  13 C :   -0.005762    0.013962
  14 C :   -0.012746   -0.028559
  15 C :   -0.012625   -0.028523
  16 C :   -0.012736   -0.028557
  17 C :    0.022519   -0.001787
  18 C :    0.022573   -0.001701
  19 C :    0.022695   -0.001691
  20 C :    0.022506   -0.001780
  21 C :    0.022571   -0.001695
  22 C :    0.022642   -0.001778
  23 C :    0.010599    0.446386
  24 C :    0.010592    0.446387
  25 C :   -0.107792    0.010924
  26 C :   -0.107541    0.010952
  27 N :    0.051299    0.009714
  28 H :    0.038245   -0.001686
  29 H :    0.052936   -0.000982
  30 H :    0.043465    0.000836
  31 H :    0.047798   -0.000819
  32 H :    0.047914   -0.000819
  33 H :    0.043340    0.000842
  34 H :    0.043469    0.000836
  35 H :    0.047794   -0.000820
  36 H :    0.044070    0.001024
  37 H :    0.068290    0.002495
  38 H :    0.067897    0.002492
  39 H :    0.044685    0.000946
  40 H :    0.067884    0.002494
  41 H :    0.044737    0.000939
  42 H :    0.044091    0.001020
  43 H :    0.068282    0.002495
  44 H :    0.067888    0.002492
  45 H :    0.044709    0.000942
  46 H :    0.044120    0.001017
  47 H :    0.068278    0.002496
  48 H :   -0.071549   -0.000176
  49 H :   -0.071544   -0.000174
  50 H :   -0.071549   -0.000176
  51 H :   -0.088385    0.080724
  52 H :   -0.088366    0.080730
  53 H :   -0.088384    0.080724
  54 H :   -0.089161    0.094776
  55 H :   -0.089204    0.094782
  56 H :   -0.089190    0.094770
  57 H :   -0.089154    0.094775
  58 H :   -0.089197    0.094781
  59 H :   -0.089147    0.094764
  60 H :    0.052932   -0.000983
  61 H :    0.038249   -0.001687
  62 H :    0.038363   -0.001694
  63 H :    0.052839   -0.000985
Sum of atomic charges         :   -1.0000000

LOEWDIN ATOMIC CHARGES AND SPIN POPULATIONS
-------------------------------------------
   0 C :   -0.124868    0.433446
   1 C :   -0.216347    0.006932
   2 C :   -0.219822    0.006220
   3 C :   -0.219847    0.006218
   4 C :   -0.219821    0.006220
   5 C :   -0.221705    0.004161
   6 C :   -0.221613    0.004165
   7 C :   -0.221602    0.004165
   8 C :   -0.221700    0.004159
   9 C :   -0.221607    0.004163
  10 C :   -0.221694    0.004160
  11 C :   -0.244723    0.001574
  12 C :   -0.244731    0.001574
  13 C :   -0.244723    0.001574
  14 C :   -0.219566    0.030613
  15 C :   -0.219533    0.030615
  16 C :   -0.219565    0.030613
  17 C :   -0.217587    0.039090
  18 C :   -0.217711    0.039085
  19 C :   -0.217690    0.039082
  20 C :   -0.217593    0.039090
  21 C :   -0.217715    0.039085
  22 C :   -0.217566    0.039087
  23 C :   -0.124871    0.433431
  24 C :   -0.124871    0.433432
  25 C :   -0.216346    0.006932
  26 C :   -0.216319    0.006934
  27 N :    0.176558    0.003851
  28 H :    0.115943    0.000188
  29 H :    0.130614   -0.000778
  30 H :    0.118489    0.000170
  31 H :    0.128825   -0.000746
  32 H :    0.128848   -0.000746
  33 H :    0.118445    0.000170
  34 H :    0.118491    0.000170
  35 H :    0.128824   -0.000746
  36 H :    0.116921    0.000780
  37 H :    0.137226    0.000297
  38 H :    0.137126    0.000300
  39 H :    0.117068    0.000773
  40 H :    0.137118    0.000300
  41 H :    0.117078    0.000772
  42 H :    0.116925    0.000780
  43 H :    0.137225    0.000297
  44 H :    0.137125    0.000300
  45 H :    0.117072    0.000772
  46 H :    0.116931    0.000780
  47 H :    0.137218    0.000297
  48 H :    0.118716    0.000153
  49 H :    0.118721    0.000153
  50 H :    0.118716    0.000153
  51 H :    0.128948    0.029507
  52 H :    0.128944    0.029507
  53 H :    0.128948    0.029507
  54 H :    0.130912    0.034733
  55 H :    0.130939    0.034738
  56 H :    0.130934    0.034734
  57 H :    0.130914    0.034733
  58 H :    0.130941    0.034738
  59 H :    0.130908    0.034728
  60 H :    0.130613   -0.000778
  61 H :    0.115944    0.000188
  62 H :    0.115980    0.000188
  63 H :    0.130589   -0.000778

  Mayer bond orders larger than 0.100000
B(  0-C , 15-C ) :   1.0821 B(  0-C , 20-C ) :   1.0621 B(  0-C , 21-C ) :   1.0618
B(  0-C , 23-C ) :   0.1686 B(  0-C , 24-C ) :   0.1686 B(  1-C , 15-C ) :   1.0462
B(  1-C , 16-C ) :   1.0463 B(  1-C , 28-H ) :   0.8906 B(  1-C , 29-H ) :   0.9342
B(  2-C , 17-C ) :   1.0506 B(  2-C , 21-C ) :   1.0505 B(  2-C , 30-H ) :   0.8934
B(  2-C , 31-H ) :   0.9306 B(  3-C , 19-C ) :   1.0505 B(  3-C , 22-C ) :   1.0505
B(  3-C , 32-H ) :   0.9306 B(  3-C , 33-H ) :   0.8933 B(  4-C , 18-C ) :   1.0505
B(  4-C , 20-C ) :   1.0506 B(  4-C , 34-H ) :   0.8934 B(  4-C , 35-H ) :   0.9306
B(  5-C , 13-C ) :   1.0353 B(  5-C , 17-C ) :   1.0493 B(  5-C , 36-H ) :   0.8871
B(  5-C , 37-H ) :   0.9391 B(  6-C , 11-C ) :   1.0355 B(  6-C , 18-C ) :   1.0492
B(  6-C , 38-H ) :   0.9392 B(  6-C , 39-H ) :   0.8875 B(  7-C , 12-C ) :   1.0355
B(  7-C , 19-C ) :   1.0492 B(  7-C , 40-H ) :   0.9392 B(  7-C , 41-H ) :   0.8876
B(  8-C , 11-C ) :   1.0353 B(  8-C , 20-C ) :   1.0493 B(  8-C , 42-H ) :   0.8871
B(  8-C , 43-H ) :   0.9391 B(  9-C , 13-C ) :   1.0355 B(  9-C , 21-C ) :   1.0493
B(  9-C , 44-H ) :   0.9392 B(  9-C , 45-H ) :   0.8875 B( 10-C , 12-C ) :   1.0353
B( 10-C , 22-C ) :   1.0493 B( 10-C , 46-H ) :   0.8871 B( 10-C , 47-H ) :   0.9391
B( 11-C , 27-N ) :   1.0423 B( 11-C , 48-H ) :   0.8517 B( 12-C , 27-N ) :   1.0423
B( 12-C , 49-H ) :   0.8517 B( 13-C , 27-N ) :   1.0423 B( 13-C , 50-H ) :   0.8517
B( 14-C , 23-C ) :   1.0821 B( 14-C , 25-C ) :   1.0462 B( 14-C , 26-C ) :   1.0463
B( 14-C , 51-H ) :   0.8122 B( 15-C , 25-C ) :   1.0463 B( 15-C , 52-H ) :   0.8122
B( 16-C , 24-C ) :   1.0821 B( 16-C , 26-C ) :   1.0462 B( 16-C , 53-H ) :   0.8122
B( 17-C , 23-C ) :   1.0621 B( 17-C , 54-H ) :   0.8010 B( 18-C , 24-C ) :   1.0618
B( 18-C , 55-H ) :   0.8009 B( 19-C , 23-C ) :   1.0618 B( 19-C , 56-H ) :   0.8009
B( 20-C , 57-H ) :   0.8010 B( 21-C , 58-H ) :   0.8009 B( 22-C , 24-C ) :   1.0621
B( 22-C , 59-H ) :   0.8010 B( 23-C , 24-C ) :   0.1686 B( 25-C , 60-H ) :   0.9342
B( 25-C , 61-H ) :   0.8906 B( 26-C , 62-H ) :   0.8907 B( 26-C , 63-H ) :   0.9342

FINAL SINGLE POINT ENERGY     -1103.915414890292

DIPOLE MOMENT
-------------
                                X             Y             Z
Electronic contribution:     -0.44534      -0.44638      -0.44529
Nuclear contribution   :      0.05286       0.05402       0.05282
                        -----------------------------------------
Total Dipole Moment    :     -0.39247      -0.39236      -0.39247
                        -----------------------------------------
Magnitude (a.u.)       :      0.67972
Magnitude (Debye)      :      1.72770

Rotational constants in cm-1:     0.008696     0.008516     0.008516
Rotational constants in MHz :   260.698084   255.307492   255.303576

                             ****ORCA TERMINATED NORMALLY****
TOTAL RUN TIME: 0 days 0 hours 32 minutes 18 seconds 646 msec
