                         Program Version 4.2.1 -  RELEASE  -
|  1> # Use EPR-II is a special basis set for epr, autoaux creates a large auxiliary basis
|  2> !PBE EPR-II AUTOAUX RIJCOSX
|  3>
|  4> # use original (unoptimized) cluster xyz
|  5> *xyzfile -1 3 nv.xyz
|  6>
|  7> # Parallelization
|  8> %PAL NPROCS 72 END
|  9>
| 10> # ZFS calculation
| 11> %EPRNMR DTENSOR SSANDSO
| 12>     DSS     UNO
| 13>     DSOC    CP
| 14> END
| 15>
| 16>                          ****END OF INPUT****

CARTESIAN COORDINATES (ANGSTROEM)
---------------------------------
  C      0.100725    1.536310   -2.249811
  C      1.305490    0.643865   -4.258023
  C     -2.414071    1.613159   -2.199697
  C     -0.189951   -2.897147   -2.199804
  C      2.604026    1.284149   -2.199700
  C     -2.496498    0.156416   -0.144983
  C      2.495549   -0.170887   -0.144986
  C     -1.395768   -2.075760   -0.145035
  C      1.383705    2.083829   -0.144933
  C     -1.099780    2.246658   -0.144931
  C      1.112794   -2.240234   -0.145037
  C      1.275258    0.628844    0.395617
  C     -0.093025   -1.418843    0.395566
  C     -1.182234    0.789970    0.395618
  C     -1.308722   -0.645265   -3.737621
  C      0.095468    1.456159   -3.737569
  C      1.213261   -0.810619   -3.737623
  C     -2.495625    0.157104   -1.693673
  C      2.494771   -0.170090   -1.693676
  C     -1.394720   -2.075427   -1.693726
  C      1.383833    2.082786   -1.693623
  C     -1.100047    2.245641   -1.693621
  C      1.111795   -2.239766   -1.693727
  C     -1.380796   -0.680842   -2.249865
  C      1.280075   -0.855302   -2.249867
  C     -1.210255    0.808810   -4.258021
  C     -0.095227   -1.452362   -4.258075
  N      0.000000    0.000000    0.000000
  H      2.212320    1.091032   -3.907906
  H      1.299061    0.640721   -5.328003
  H     -2.428666    1.622939   -3.269544
  H     -3.249898    2.171658   -1.833101
  H     -0.255560   -3.897836   -1.826663
  H     -0.191558   -2.921636   -3.269519
  H      2.619771    1.291939   -3.269548
  H      3.505620    1.728733   -1.833106
  H     -2.573920   -0.850863    0.207581
  H     -3.329076    0.731394    0.203028
  H      3.398633    0.281725    0.207839
  H      2.431760   -1.180786    0.202756
  H     -1.455329   -3.084174    0.207753
  H     -2.238465   -1.515580    0.202744
  H      0.550093    2.654505    0.207668
  H      2.297946    2.517360    0.203076
  H     -1.943304    2.802433    0.207895
  H     -0.193295    2.696351    0.202848
  H      2.023826   -1.803657    0.207562
  H      1.031130   -3.248769    0.202936
  H      1.286461    0.634343    1.465539
  H     -0.093843   -1.431335    1.465488
  H     -1.192621    0.796884    1.465541
  H     -2.210015   -1.089702   -4.105093
  H      0.161214    2.458934   -4.105005
  H      2.048809   -1.368931   -4.105096
  H     -3.406972   -0.284051   -2.039696
  H      3.340714   -0.726462   -2.039701
  H     -2.299531   -2.529837   -2.039749
  H      1.457447    3.092626   -2.039611
  H     -1.041180    3.256448   -2.039609
  H      1.949528   -2.808426   -2.039752
  H     -1.204484    0.804980   -5.328007
  H     -2.050881    1.370515   -3.907684
  H     -0.161376   -2.461296   -3.907994
  H     -0.094757   -1.445182   -5.328055

 Total Charge           Charge          ....   -1
 Multiplicity           Mult            ....    3
 Number of Electrons    NEL             ....  206
 Basis Dimension        Dim             ....  728

ORBITAL ENERGIES
----------------
                 SPIN UP ORBITALS
  NO   OCC          E(Eh)            E(eV)
   0   1.0000     -13.855725      -377.0335
   1   1.0000      -9.801481      -266.7119
   2   1.0000      -9.801138      -266.7025
   3   1.0000      -9.801060      -266.7004
   4   1.0000      -9.762899      -265.6620
   5   1.0000      -9.762693      -265.6564
   6   1.0000      -9.762673      -265.6558
   7   1.0000      -9.762651      -265.6552
   8   1.0000      -9.762639      -265.6549
   9   1.0000      -9.762520      -265.6517
  10   1.0000      -9.755686      -265.4657
  11   1.0000      -9.755546      -265.4619
  12   1.0000      -9.755383      -265.4575
  13   1.0000      -9.749133      -265.2874
  14   1.0000      -9.749120      -265.2870
  15   1.0000      -9.748815      -265.2787
  16   1.0000      -9.748644      -265.2741
  17   1.0000      -9.748348      -265.2660
  18   1.0000      -9.747892      -265.2536
  19   1.0000      -9.739725      -265.0314
  20   1.0000      -9.739533      -265.0262
  21   1.0000      -9.739436      -265.0235
  22   1.0000      -9.735674      -264.9211
  23   1.0000      -9.735488      -264.9161
  24   1.0000      -9.735243      -264.9094
  25   1.0000      -9.734640      -264.8930
  26   1.0000      -9.734325      -264.8844
  27   1.0000      -9.734105      -264.8785
  28   1.0000      -0.729695       -19.8560
  29   1.0000      -0.667411       -18.1612
  30   1.0000      -0.652354       -17.7515
  31   1.0000      -0.652238       -17.7483
  32   1.0000      -0.609347       -16.5812
  33   1.0000      -0.598267       -16.2797
  34   1.0000      -0.597955       -16.2712
  35   1.0000      -0.582456       -15.8494
  36   1.0000      -0.582316       -15.8456
  37   1.0000      -0.545776       -14.8513
  38   1.0000      -0.521596       -14.1933
  39   1.0000      -0.521502       -14.1908
  40   1.0000      -0.518956       -14.1215
  41   1.0000      -0.515956       -14.0399
  42   1.0000      -0.515705       -14.0330
  43   1.0000      -0.501957       -13.6589
  44   1.0000      -0.444693       -12.1007
  45   1.0000      -0.444599       -12.0982
  46   1.0000      -0.423883       -11.5345
  47   1.0000      -0.405304       -11.0289
  48   1.0000      -0.405257       -11.0276
  49   1.0000      -0.400257       -10.8915
  50   1.0000      -0.397486       -10.8161
  51   1.0000      -0.384009       -10.4494
  52   1.0000      -0.383982       -10.4487
  53   1.0000      -0.358458        -9.7541
  54   1.0000      -0.357906        -9.7391
  55   1.0000      -0.357891        -9.7387
  56   1.0000      -0.346436        -9.4270
  57   1.0000      -0.312914        -8.5148
  58   1.0000      -0.308992        -8.4081
  59   1.0000      -0.308869        -8.4048
  60   1.0000      -0.301336        -8.1998
  61   1.0000      -0.301197        -8.1960
  62   1.0000      -0.282101        -7.6764
  63   1.0000      -0.279303        -7.6002
  64   1.0000      -0.279165        -7.5965
  65   1.0000      -0.275621        -7.5000
  66   1.0000      -0.275570        -7.4987
  67   1.0000      -0.242657        -6.6030
  68   1.0000      -0.242571        -6.6007
  69   1.0000      -0.238261        -6.4834
  70   1.0000      -0.231022        -6.2864
  71   1.0000      -0.228432        -6.2160
  72   1.0000      -0.226267        -6.1570
  73   1.0000      -0.226227        -6.1560
  74   1.0000      -0.212474        -5.7817
  75   1.0000      -0.212362        -5.7787
  76   1.0000      -0.210104        -5.7172
  77   1.0000      -0.197013        -5.3610
  78   1.0000      -0.190609        -5.1867
  79   1.0000      -0.190589        -5.1862
  80   1.0000      -0.179326        -4.8797
  81   1.0000      -0.179285        -4.8786
  82   1.0000      -0.171380        -4.6635
  83   1.0000      -0.166769        -4.5380
  84   1.0000      -0.166719        -4.5366
  85   1.0000      -0.161157        -4.3853
  86   1.0000      -0.158650        -4.3171
  87   1.0000      -0.156257        -4.2520
  88   1.0000      -0.156175        -4.2497
  89   1.0000      -0.146968        -3.9992
  90   1.0000      -0.146845        -3.9958
  91   1.0000      -0.135098        -3.6762
  92   1.0000      -0.119917        -3.2631
  93   1.0000      -0.119869        -3.2618
  94   1.0000      -0.095628        -2.6022
  95   1.0000      -0.095551        -2.6001
  96   1.0000      -0.092613        -2.5201
  97   1.0000      -0.077024        -2.0959
  98   1.0000      -0.059111        -1.6085
  99   1.0000      -0.056820        -1.5461
 100   1.0000      -0.056557        -1.5390
 101   1.0000       0.002083         0.0567
 102   1.0000       0.047386         1.2894
 103   1.0000       0.047547         1.2938
 104   0.0000       0.096964         2.6385
 105   0.0000       0.113776         3.0960
 106   0.0000       0.116252         3.1634
 107   0.0000       0.117323         3.1925
 108   0.0000       0.124712         3.3936

                 SPIN DOWN ORBITALS
  NO   OCC          E(Eh)            E(eV)
   0   1.0000     -13.855676      -377.0321
   1   1.0000      -9.801436      -266.7106
   2   1.0000      -9.801091      -266.7013
   3   1.0000      -9.801014      -266.6991
   4   1.0000      -9.763128      -265.6682
   5   1.0000      -9.762925      -265.6627
   6   1.0000      -9.762904      -265.6621
   7   1.0000      -9.762880      -265.6615
   8   1.0000      -9.762872      -265.6613
   9   1.0000      -9.762752      -265.6580
  10   1.0000      -9.756086      -265.4766
  11   1.0000      -9.755942      -265.4727
  12   1.0000      -9.755783      -265.4683
  13   1.0000      -9.749027      -265.2845
  14   1.0000      -9.749012      -265.2841
  15   1.0000      -9.748707      -265.2758
  16   1.0000      -9.748538      -265.2712
  17   1.0000      -9.748240      -265.2631
  18   1.0000      -9.747785      -265.2507
  19   1.0000      -9.739569      -265.0271
  20   1.0000      -9.739377      -265.0219
  21   1.0000      -9.739280      -265.0193
  22   1.0000      -9.735479      -264.9158
  23   1.0000      -9.735294      -264.9108
  24   1.0000      -9.735049      -264.9042
  25   1.0000      -9.725947      -264.6565
  26   1.0000      -9.725638      -264.6481
  27   1.0000      -9.725373      -264.6408
  28   1.0000      -0.729074       -19.8391
  29   1.0000      -0.664417       -18.0797
  30   1.0000      -0.650485       -17.7006
  31   1.0000      -0.650366       -17.6974
  32   1.0000      -0.608884       -16.5686
  33   1.0000      -0.597794       -16.2668
  34   1.0000      -0.597479       -16.2582
  35   1.0000      -0.579725       -15.7751
  36   1.0000      -0.579592       -15.7715
  37   1.0000      -0.545169       -14.8348
  38   1.0000      -0.520878       -14.1738
  39   1.0000      -0.520767       -14.1708
  40   1.0000      -0.518280       -14.1031
  41   1.0000      -0.512727       -13.9520
  42   1.0000      -0.512471       -13.9450
  43   1.0000      -0.495601       -13.4860
  44   1.0000      -0.444056       -12.0834
  45   1.0000      -0.443961       -12.0808
  46   1.0000      -0.423670       -11.5286
  47   1.0000      -0.404541       -11.0081
  48   1.0000      -0.404494       -11.0068
  49   1.0000      -0.399172       -10.8620
  50   1.0000      -0.395478       -10.7615
  51   1.0000      -0.381025       -10.3682
  52   1.0000      -0.380993       -10.3673
  53   1.0000      -0.357244        -9.7211
  54   1.0000      -0.356351        -9.6968
  55   1.0000      -0.356348        -9.6967
  56   1.0000      -0.341550        -9.2940
  57   1.0000      -0.310390        -8.4461
  58   1.0000      -0.307476        -8.3668
  59   1.0000      -0.307311        -8.3624
  60   1.0000      -0.297599        -8.0981
  61   1.0000      -0.297429        -8.0934
  62   1.0000      -0.280714        -7.6386
  63   1.0000      -0.277418        -7.5489
  64   1.0000      -0.277268        -7.5449
  65   1.0000      -0.273899        -7.4532
  66   1.0000      -0.273875        -7.4525
  67   1.0000      -0.240911        -6.5555
  68   1.0000      -0.240823        -6.5531
  69   1.0000      -0.236286        -6.4297
  70   1.0000      -0.228816        -6.2264
  71   1.0000      -0.225355        -6.1322
  72   1.0000      -0.224746        -6.1157
  73   1.0000      -0.224698        -6.1144
  74   1.0000      -0.212090        -5.7713
  75   1.0000      -0.211978        -5.7682
  76   1.0000      -0.209861        -5.7106
  77   1.0000      -0.195757        -5.3268
  78   1.0000      -0.187668        -5.1067
  79   1.0000      -0.187640        -5.1059
  80   1.0000      -0.178343        -4.8530
  81   1.0000      -0.178300        -4.8518
  82   1.0000      -0.171023        -4.6538
  83   1.0000      -0.165996        -4.5170
  84   1.0000      -0.165942        -4.5155
  85   1.0000      -0.159854        -4.3499
  86   1.0000      -0.156041        -4.2461
  87   1.0000      -0.154825        -4.2130
  88   1.0000      -0.154743        -4.2108
  89   1.0000      -0.144831        -3.9411
  90   1.0000      -0.144710        -3.9378
  91   1.0000      -0.132002        -3.5920
  92   1.0000      -0.117096        -3.1863
  93   1.0000      -0.117046        -3.1850
  94   1.0000      -0.093252        -2.5375
  95   1.0000      -0.093175        -2.5354
  96   1.0000      -0.090762        -2.4698
  97   1.0000      -0.060823        -1.6551
  98   1.0000      -0.058610        -1.5949
  99   1.0000      -0.056421        -1.5353
 100   1.0000      -0.056159        -1.5282
 101   1.0000       0.023518         0.6400
 102   0.0000       0.083271         2.2659
 103   0.0000       0.083713         2.2780
 104   0.0000       0.097822         2.6619
 105   0.0000       0.117830         3.2063
 106   0.0000       0.119339         3.2474

MULLIKEN ATOMIC CHARGES AND SPIN POPULATIONS
--------------------------------------------
   0 C :    0.886253    0.342978
   1 C :   -0.320818    0.003491
   2 C :   -0.383530   -0.031227
   3 C :   -0.350901   -0.028451
   4 C :   -0.373130   -0.032579
   5 C :   -0.359267   -0.014061
   6 C :   -0.358755   -0.014400
   7 C :   -0.357341   -0.012694
   8 C :   -0.356281   -0.012986
   9 C :   -0.341551   -0.014714
  10 C :   -0.337633   -0.015086
  11 C :   -0.151648    0.009688
  12 C :   -0.176699    0.009383
  13 C :   -0.154311    0.009627
  14 C :   -0.361360    0.036853
  15 C :   -0.335542    0.040279
  16 C :   -0.365515    0.043560
  17 C :   -0.301379    0.097669
  18 C :   -0.318745    0.101918
  19 C :   -0.312649    0.097022
  20 C :   -0.306542    0.101724
  21 C :   -0.310344    0.104418
  22 C :   -0.328605    0.106181
  23 C :    0.921107    0.353576
  24 C :    0.935388    0.337824
  25 C :   -0.340085    0.004152
  26 C :   -0.340332    0.006840
  27 N :    0.385860   -0.017445
  28 H :    0.148197    0.000767
  29 H :    0.074329   -0.000612
  30 H :    0.162463   -0.001306
  31 H :    0.077814   -0.001605
  32 H :    0.066833   -0.002021
  33 H :    0.149453   -0.001351
  34 H :    0.166036   -0.001289
  35 H :    0.074589   -0.001366
  36 H :    0.153636   -0.001387
  37 H :    0.081771   -0.000759
  38 H :    0.078607   -0.000496
  39 H :    0.159731   -0.001265
  40 H :    0.075890   -0.000874
  41 H :    0.157025   -0.000758
  42 H :    0.149403   -0.000913
  43 H :    0.071375   -0.000456
  44 H :    0.066024   -0.000477
  45 H :    0.152242   -0.000709
  46 H :    0.143768   -0.000457
  47 H :    0.070148   -0.000740
  48 H :    0.082095    0.000234
  49 H :    0.092806    0.000278
  50 H :    0.083842    0.000225
  51 H :    0.060672    0.043226
  52 H :    0.051962    0.041801
  53 H :    0.056762    0.042731
  54 H :    0.058036    0.045976
  55 H :    0.062170    0.045287
  56 H :    0.055272    0.046185
  57 H :    0.057861    0.046111
  58 H :    0.057690    0.046570
  59 H :    0.056184    0.046074
  60 H :    0.077986   -0.000594
  61 H :    0.152790    0.000697
  62 H :    0.153002    0.000462
  63 H :    0.075890   -0.000726
Sum of atomic charges         :   -1.0000000

LOEWDIN ATOMIC CHARGES AND SPIN POPULATIONS
-------------------------------------------
   0 C :   -0.104767    0.456965
   1 C :   -0.015546    0.010389
   2 C :   -0.022213    0.008810
   3 C :   -0.020499    0.009369
   4 C :   -0.022029    0.008663
   5 C :   -0.012249    0.009835
   6 C :   -0.011343    0.009818
   7 C :   -0.013016    0.010005
   8 C :   -0.010080    0.010131
   9 C :   -0.009577    0.010105
  10 C :   -0.010881    0.010018
  11 C :   -0.070655    0.001326
  12 C :   -0.072767    0.001223
  13 C :   -0.071003    0.001290
  14 C :   -0.109524    0.026230
  15 C :   -0.106865    0.025934
  16 C :   -0.109262    0.026844
  17 C :   -0.104936    0.036477
  18 C :   -0.105516    0.036537
  19 C :   -0.105234    0.036861
  20 C :   -0.105705    0.037229
  21 C :   -0.106340    0.037825
  22 C :   -0.106206    0.037904
  23 C :   -0.103804    0.459198
  24 C :   -0.103314    0.456483
  25 C :   -0.016277    0.010493
  26 C :   -0.016231    0.011117
  27 N :   -0.011235    0.007035
  28 H :   -0.011053    0.000553
  29 H :    0.025215   -0.000346
  30 H :   -0.009398    0.000447
  31 H :    0.024721   -0.000286
  32 H :    0.023939   -0.000301
  33 H :   -0.009378    0.000430
  34 H :   -0.009478    0.000449
  35 H :    0.024571   -0.000277
  36 H :   -0.013829    0.000518
  37 H :    0.030230    0.000237
  38 H :    0.029558    0.000245
  39 H :   -0.016048    0.000527
  40 H :    0.029577    0.000224
  41 H :   -0.015339    0.000528
  42 H :   -0.014545    0.000521
  43 H :    0.028997    0.000247
  44 H :    0.028316    0.000243
  45 H :   -0.016144    0.000521
  46 H :   -0.014021    0.000517
  47 H :    0.029244    0.000241
  48 H :    0.033117    0.000187
  49 H :    0.033977    0.000175
  50 H :    0.033188    0.000177
  51 H :    0.044028    0.019609
  52 H :    0.043703    0.019302
  53 H :    0.043908    0.019421
  54 H :    0.045371    0.021866
  55 H :    0.045723    0.021707
  56 H :    0.044984    0.021936
  57 H :    0.045228    0.021953
  58 H :    0.045019    0.022032
  59 H :    0.045046    0.021918
  60 H :    0.025461   -0.000351
  61 H :   -0.010796    0.000546
  62 H :   -0.011098    0.000538
  63 H :    0.025077   -0.000363

  Mayer bond orders larger than 0.100000
B(  0-C , 15-C ) :   1.0635 B(  0-C , 20-C ) :   1.0638 B(  0-C , 21-C ) :   1.0580
B(  0-C , 23-C ) :   0.1941 B(  0-C , 24-C ) :   0.1932 B(  0-C , 27-N ) :   0.1604
B(  1-C ,  4-C ) :   0.1523 B(  1-C , 15-C ) :   0.9614 B(  1-C , 16-C ) :   0.9566
B(  1-C , 28-H ) :   0.7714 B(  1-C , 29-H ) :   0.9781 B(  2-C , 17-C ) :   0.9756
B(  2-C , 21-C ) :   0.9823 B(  2-C , 25-C ) :   0.1505 B(  2-C , 30-H ) :   0.7725
B(  2-C , 31-H ) :   0.9776 B(  3-C , 19-C ) :   0.9832 B(  3-C , 22-C ) :   0.9787
B(  3-C , 26-C ) :   0.1374 B(  3-C , 32-H ) :   0.9846 B(  3-C , 33-H ) :   0.7808
B(  4-C , 18-C ) :   0.9755 B(  4-C , 20-C ) :   0.9843 B(  4-C , 34-H ) :   0.7687
B(  4-C , 35-H ) :   0.9731 B(  5-C ,  7-C ) :   0.1552 B(  5-C , 13-C ) :   0.9618
B(  5-C , 17-C ) :   0.9607 B(  5-C , 36-H ) :   0.7636 B(  5-C , 37-H ) :   0.9739
B(  6-C , 10-C ) :   0.1486 B(  6-C , 11-C ) :   0.9569 B(  6-C , 18-C ) :   0.9649
B(  6-C , 38-H ) :   0.9737 B(  6-C , 39-H ) :   0.7677 B(  7-C , 12-C ) :   0.9583
B(  7-C , 19-C ) :   0.9618 B(  7-C , 40-H ) :   0.9736 B(  7-C , 41-H ) :   0.7663
B(  8-C ,  9-C ) :   0.1520 B(  8-C , 11-C ) :   0.9427 B(  8-C , 20-C ) :   0.9627
B(  8-C , 42-H ) :   0.7711 B(  8-C , 43-H ) :   0.9811 B(  9-C , 13-C ) :   0.9397
B(  9-C , 21-C ) :   0.9656 B(  9-C , 44-H ) :   0.9800 B(  9-C , 45-H ) :   0.7701
B( 10-C , 12-C ) :   0.9524 B( 10-C , 22-C ) :   0.9654 B( 10-C , 46-H ) :   0.7691
B( 10-C , 47-H ) :   0.9743 B( 11-C , 12-C ) :   0.1073 B( 11-C , 13-C ) :   0.1079
B( 11-C , 27-N ) :   1.0953 B( 11-C , 48-H ) :   1.0177 B( 12-C , 13-C ) :   0.1059
B( 12-C , 27-N ) :   1.1154 B( 12-C , 49-H ) :   1.0095 B( 13-C , 27-N ) :   1.1014
B( 13-C , 50-H ) :   1.0139 B( 14-C , 17-C ) :   0.2188 B( 14-C , 19-C ) :   0.2221
B( 14-C , 23-C ) :   1.0715 B( 14-C , 25-C ) :   0.9601 B( 14-C , 26-C ) :   0.9667
B( 14-C , 51-H ) :   1.0081 B( 15-C , 20-C ) :   0.2217 B( 15-C , 21-C ) :   0.2227
B( 15-C , 25-C ) :   0.9597 B( 15-C , 52-H ) :   1.0200 B( 16-C , 18-C ) :   0.2286
B( 16-C , 22-C ) :   0.2297 B( 16-C , 24-C ) :   1.0605 B( 16-C , 26-C ) :   0.9603
B( 16-C , 53-H ) :   1.0213 B( 17-C , 19-C ) :   0.2123 B( 17-C , 23-C ) :   1.0679
B( 17-C , 54-H ) :   0.9983 B( 18-C , 22-C ) :   0.2141 B( 18-C , 24-C ) :   1.0549
B( 18-C , 55-H ) :   1.0050 B( 19-C , 23-C ) :   1.0509 B( 19-C , 56-H ) :   1.0049
B( 20-C , 21-C ) :   0.2173 B( 20-C , 57-H ) :   1.0044 B( 21-C , 58-H ) :   1.0096
B( 22-C , 24-C ) :   1.0387 B( 22-C , 59-H ) :   1.0177 B( 23-C , 24-C ) :   0.1983
B( 23-C , 27-N ) :   0.1568 B( 24-C , 27-N ) :   0.1581 B( 25-C , 60-H ) :   0.9800
B( 25-C , 61-H ) :   0.7742 B( 26-C , 62-H ) :   0.7811 B( 26-C , 63-H ) :   0.9872
B( 28-H , 34-H ) :   0.2270 B( 30-H , 61-H ) :   0.2265 B( 33-H , 62-H ) :   0.2257
B( 36-H , 41-H ) :   0.2423 B( 39-H , 46-H ) :   0.2420 B( 42-H , 45-H ) :   0.2425

FINAL SINGLE POINT ENERGY     -1103.168036774179

DIPOLE MOMENT
-------------
                                X             Y             Z
Electronic contribution:      0.00220       0.01276       1.06694
Nuclear contribution   :     -0.00037      -0.00379      -0.32886
                        -----------------------------------------
Total Dipole Moment    :      0.00183       0.00896       0.73808
                        -----------------------------------------
Magnitude (a.u.)       :      0.73813
Magnitude (Debye)      :      1.87619

Rotational constants in cm-1:     0.009246     0.009141     0.009141
Rotational constants in MHz :   277.183097   274.048600   274.045280

                             ****ORCA TERMINATED NORMALLY****
TOTAL RUN TIME: 0 days 0 hours 4 minutes 41 seconds 653 msec
