                         Program Version 4.2.1 -  RELEASE  -
|  1>
|  2> # Use EPR-II is a special basis set for epr, autoaux creates a large auxiliary basis set
|  3> !PBE EPR-II AUTOAUX RIJCOSX
|  4>
|  5> # use original (unoptimized) cluster xyz
|  6> *xyzfile -1 3 nv_cluster.xyz
|  7>
|  8> # Parallelization
|  9> %PAL NPROCS 72 END
| 10>
| 11> # EPR calculation
| 12> %EPRNMR
| 13>     GTENSOR     TRUE
| 14>     NUCLEI      = ALL N {AISO, ADIP}
| 15> END
| 16>
| 17>                          ****END OF INPUT****

CARTESIAN COORDINATES (ANGSTROEM)
---------------------------------
  C      8.091600    6.206040    8.091600
  C      8.028270    8.028270    9.810990
  C      9.804780    6.248830    6.248830
  C      6.248830    9.804780    6.248830
  C      6.248830    6.248830    9.804780
  C      8.013620    6.253760    4.476130
  C      4.476130    6.253760    8.013620
  C      6.253760    8.013620    4.476130
  C      6.253760    4.476130    8.013620
  C      8.013620    4.476130    6.253760
  C      4.476130    8.013620    6.253760
  C      5.355250    5.355250    7.096690
  C      5.355250    7.096690    5.355250
  C      7.096690    5.355250    5.355250
  C      8.917750    8.917750    7.130610
  C      8.917750    7.130610    8.917750
  C      7.130610    8.917750    8.917750
  C      8.907460    7.147320    5.371140
  C      5.371140    7.147320    8.907460
  C      7.147320    8.907460    5.371140
  C      7.147320    5.371140    8.907460
  C      8.907460    5.371140    7.147320
  C      5.371140    8.907460    7.147320
  C      8.091600    8.091600    6.206040
  C      6.206040    8.091600    8.091600
  C      9.810990    8.028270    8.028270
  C      8.028270    9.810990    8.028270
  N      6.164130    6.164130    6.164130
  H      7.413360    7.413360   10.434410
  H      8.648950    8.648950   10.422890
  H     10.436790    6.859340    6.859340
  H     10.413920    5.626790    5.626790
  H      5.623980   10.408140    5.623980
  H      6.856400   10.442440    6.856400
  H      6.859340    6.859340   10.436790
  H      5.626790    5.626790   10.413920
  H      7.405680    6.875000    3.852130
  H      8.638760    5.628850    3.873150
  H      3.864670    5.633050    8.634700
  H      3.860530    6.879190    7.401440
  H      5.633050    8.634700    3.864670
  H      6.879190    7.401440    3.860530
  H      6.875000    3.852130    7.405680
  H      5.628850    3.873150    8.638760
  H      8.634700    3.864670    5.633050
  H      7.401440    3.860530    6.879190
  H      3.852130    7.405680    6.875000
  H      3.873150    8.638760    5.628850
  H      4.732430    4.732430    6.489170
  H      4.732430    6.489170    4.732430
  H      6.489170    4.732430    4.732430
  H      9.540160    9.540160    6.522250
  H      9.540160    6.522250    9.540160
  H      6.522250    9.540160    9.540160
  H      9.525800    7.755210    4.744220
  H      4.744220    7.755210    9.525800
  H      7.755210    9.525800    4.744220
  H      7.755210    4.744220    9.525800
  H      9.525800    4.744220    7.755210
  H      4.744220    9.525800    7.755210
  H     10.423080    8.648860    8.648860
  H     10.434230    7.413260    7.413260
  H      7.413360   10.434410    7.413360
  H      8.648950   10.422890    8.648950

 Total Charge           Charge          ....   -1
 Multiplicity           Mult            ....    3
 Number of Electrons    NEL             ....  206
 Basis Dimension        Dim             ....  728

ORBITAL ENERGIES
----------------
                 SPIN UP ORBITALS
  NO   OCC          E(Eh)            E(eV)
   0   1.0000     -13.856672      -377.0592
   1   1.0000      -9.803258      -266.7602
   2   1.0000      -9.803227      -266.7594
   3   1.0000      -9.803226      -266.7593
   4   1.0000      -9.765085      -265.7215
   5   1.0000      -9.765024      -265.7198
   6   1.0000      -9.765023      -265.7198
   7   1.0000      -9.764961      -265.7181
   8   1.0000      -9.764901      -265.7165
   9   1.0000      -9.764896      -265.7163
  10   1.0000      -9.757919      -265.5265
  11   1.0000      -9.757876      -265.5253
  12   1.0000      -9.757875      -265.5253
  13   1.0000      -9.751086      -265.3405
  14   1.0000      -9.751037      -265.3392
  15   1.0000      -9.751020      -265.3387
  16   1.0000      -9.750428      -265.3226
  17   1.0000      -9.750378      -265.3213
  18   1.0000      -9.750363      -265.3209
  19   1.0000      -9.741637      -265.0834
  20   1.0000      -9.741289      -265.0739
  21   1.0000      -9.741283      -265.0738
  22   1.0000      -9.738200      -264.9899
  23   1.0000      -9.738188      -264.9896
  24   1.0000      -9.738188      -264.9896
  25   1.0000      -9.737767      -264.9781
  26   1.0000      -9.737759      -264.9779
  27   1.0000      -9.737654      -264.9750
  28   1.0000      -0.731145       -19.8955
  29   1.0000      -0.669538       -18.2191
  30   1.0000      -0.654191       -17.8014
  31   1.0000      -0.654177       -17.8011
  32   1.0000      -0.611077       -16.6282
  33   1.0000      -0.599625       -16.3166
  34   1.0000      -0.599467       -16.3123
  35   1.0000      -0.584218       -15.8974
  36   1.0000      -0.584203       -15.8970
  37   1.0000      -0.547056       -14.8861
  38   1.0000      -0.523034       -14.2325
  39   1.0000      -0.522992       -14.2313
  40   1.0000      -0.520465       -14.1626
  41   1.0000      -0.517371       -14.0784
  42   1.0000      -0.517192       -14.0735
  43   1.0000      -0.503587       -13.7033
  44   1.0000      -0.445966       -12.1353
  45   1.0000      -0.445888       -12.1332
  46   1.0000      -0.425291       -11.5728
  47   1.0000      -0.406715       -11.0673
  48   1.0000      -0.406706       -11.0670
  49   1.0000      -0.401738       -10.9318
  50   1.0000      -0.399298       -10.8655
  51   1.0000      -0.385838       -10.4992
  52   1.0000      -0.385768       -10.4973
  53   1.0000      -0.360148        -9.8001
  54   1.0000      -0.359420        -9.7803
  55   1.0000      -0.359368        -9.7789
  56   1.0000      -0.348439        -9.4815
  57   1.0000      -0.314464        -8.5570
  58   1.0000      -0.310478        -8.4485
  59   1.0000      -0.310430        -8.4472
  60   1.0000      -0.302971        -8.2443
  61   1.0000      -0.302926        -8.2430
  62   1.0000      -0.283772        -7.7218
  63   1.0000      -0.280684        -7.6378
  64   1.0000      -0.280626        -7.6362
  65   1.0000      -0.277314        -7.5461
  66   1.0000      -0.277311        -7.5460
  67   1.0000      -0.244412        -6.6508
  68   1.0000      -0.244406        -6.6506
  69   1.0000      -0.239787        -6.5249
  70   1.0000      -0.232842        -6.3360
  71   1.0000      -0.229909        -6.2561
  72   1.0000      -0.227936        -6.2025
  73   1.0000      -0.227907        -6.2017
  74   1.0000      -0.213949        -5.8219
  75   1.0000      -0.213885        -5.8201
  76   1.0000      -0.211666        -5.7597
  77   1.0000      -0.198654        -5.4057
  78   1.0000      -0.192254        -5.2315
  79   1.0000      -0.192250        -5.2314
  80   1.0000      -0.180559        -4.9133
  81   1.0000      -0.180555        -4.9132
  82   1.0000      -0.173023        -4.7082
  83   1.0000      -0.168098        -4.5742
  84   1.0000      -0.168073        -4.5735
  85   1.0000      -0.162394        -4.4190
  86   1.0000      -0.160371        -4.3639
  87   1.0000      -0.157614        -4.2889
  88   1.0000      -0.157607        -4.2887
  89   1.0000      -0.148502        -4.0410
  90   1.0000      -0.148433        -4.0391
  91   1.0000      -0.136729        -3.7206
  92   1.0000      -0.121430        -3.3043
  93   1.0000      -0.121423        -3.3041
  94   1.0000      -0.097043        -2.6407
  95   1.0000      -0.097039        -2.6406
  96   1.0000      -0.094060        -2.5595
  97   1.0000      -0.078923        -2.1476
  98   1.0000      -0.060276        -1.6402
  99   1.0000      -0.058044        -1.5794
 100   1.0000      -0.057724        -1.5708
 101   1.0000       0.000611         0.0166
 102   1.0000       0.045042         1.2257
 103   1.0000       0.045048         1.2258
 104   0.0000       0.095649         2.6027
 105   0.0000       0.112179         3.0525
 106   0.0000       0.115806         3.1512
 107   0.0000       0.115822         3.1517
 108   0.0000       0.122563         3.3351

                 SPIN DOWN ORBITALS
  NO   OCC          E(Eh)            E(eV)
   0   1.0000     -13.856631      -377.0581
   1   1.0000      -9.803214      -266.7590
   2   1.0000      -9.803183      -266.7582
   3   1.0000      -9.803182      -266.7581
   4   1.0000      -9.765314      -265.7277
   5   1.0000      -9.765253      -265.7260
   6   1.0000      -9.765252      -265.7260
   7   1.0000      -9.765190      -265.7243
   8   1.0000      -9.765130      -265.7227
   9   1.0000      -9.765125      -265.7225
  10   1.0000      -9.758312      -265.5372
  11   1.0000      -9.758269      -265.5360
  12   1.0000      -9.758268      -265.5360
  13   1.0000      -9.750983      -265.3377
  14   1.0000      -9.750935      -265.3364
  15   1.0000      -9.750917      -265.3359
  16   1.0000      -9.750325      -265.3198
  17   1.0000      -9.750275      -265.3185
  18   1.0000      -9.750260      -265.3181
  19   1.0000      -9.741487      -265.0793
  20   1.0000      -9.741139      -265.0699
  21   1.0000      -9.741134      -265.0697
  22   1.0000      -9.737579      -264.9730
  23   1.0000      -9.737571      -264.9728
  24   1.0000      -9.737465      -264.9699
  25   1.0000      -9.729603      -264.7559
  26   1.0000      -9.729591      -264.7556
  27   1.0000      -9.729590      -264.7556
  28   1.0000      -0.730517       -19.8784
  29   1.0000      -0.666577       -18.1385
  30   1.0000      -0.652325       -17.7507
  31   1.0000      -0.652313       -17.7503
  32   1.0000      -0.610620       -16.6158
  33   1.0000      -0.599163       -16.3040
  34   1.0000      -0.599003       -16.2997
  35   1.0000      -0.581509       -15.8237
  36   1.0000      -0.581502       -15.8235
  37   1.0000      -0.546457       -14.8698
  38   1.0000      -0.522346       -14.2137
  39   1.0000      -0.522303       -14.2126
  40   1.0000      -0.519805       -14.1446
  41   1.0000      -0.514182       -13.9916
  42   1.0000      -0.514007       -13.9868
  43   1.0000      -0.497320       -13.5328
  44   1.0000      -0.445340       -12.1183
  45   1.0000      -0.445264       -12.1162
  46   1.0000      -0.425079       -11.5670
  47   1.0000      -0.405963       -11.0468
  48   1.0000      -0.405954       -11.0466
  49   1.0000      -0.400667       -10.9027
  50   1.0000      -0.397332       -10.8120
  51   1.0000      -0.382876       -10.4186
  52   1.0000      -0.382803       -10.4166
  53   1.0000      -0.358948        -9.7675
  54   1.0000      -0.357890        -9.7387
  55   1.0000      -0.357839        -9.7373
  56   1.0000      -0.343553        -9.3486
  57   1.0000      -0.311998        -8.4899
  58   1.0000      -0.308934        -8.4065
  59   1.0000      -0.308883        -8.4051
  60   1.0000      -0.299273        -8.1436
  61   1.0000      -0.299233        -8.1425
  62   1.0000      -0.282424        -7.6852
  63   1.0000      -0.278791        -7.5863
  64   1.0000      -0.278744        -7.5850
  65   1.0000      -0.275650        -7.5008
  66   1.0000      -0.275644        -7.5007
  67   1.0000      -0.242699        -6.6042
  68   1.0000      -0.242693        -6.6040
  69   1.0000      -0.237844        -6.4721
  70   1.0000      -0.230657        -6.2765
  71   1.0000      -0.226880        -6.1737
  72   1.0000      -0.226421        -6.1612
  73   1.0000      -0.226390        -6.1604
  74   1.0000      -0.213585        -5.8119
  75   1.0000      -0.213518        -5.8101
  76   1.0000      -0.211425        -5.7532
  77   1.0000      -0.197393        -5.3713
  78   1.0000      -0.189303        -5.1512
  79   1.0000      -0.189299        -5.1511
  80   1.0000      -0.179583        -4.8867
  81   1.0000      -0.179580        -4.8866
  82   1.0000      -0.172677        -4.6988
  83   1.0000      -0.167329        -4.5533
  84   1.0000      -0.167300        -4.5525
  85   1.0000      -0.161084        -4.3833
  86   1.0000      -0.157798        -4.2939
  87   1.0000      -0.156189        -4.2501
  88   1.0000      -0.156184        -4.2500
  89   1.0000      -0.146401        -3.9838
  90   1.0000      -0.146331        -3.9819
  91   1.0000      -0.133670        -3.6373
  92   1.0000      -0.118656        -3.2288
  93   1.0000      -0.118648        -3.2286
  94   1.0000      -0.094703        -2.5770
  95   1.0000      -0.094702        -2.5770
  96   1.0000      -0.092259        -2.5105
  97   1.0000      -0.062630        -1.7043
  98   1.0000      -0.059779        -1.6267
  99   1.0000      -0.057652        -1.5688
 100   1.0000      -0.057333        -1.5601
 101   1.0000       0.021293         0.5794
 102   0.0000       0.080222         2.1829
 103   0.0000       0.080228         2.1831
 104   0.0000       0.097403         2.6505
 105   0.0000       0.115710         3.1486
 106   0.0000       0.119095         3.2407

MULLIKEN ATOMIC CHARGES AND SPIN POPULATIONS
--------------------------------------------
   0 C :    0.863957    0.326978
   1 C :   -0.332418    0.004543
   2 C :   -0.349961   -0.035619
   3 C :   -0.348009   -0.035661
   4 C :   -0.349991   -0.035619
   5 C :   -0.358046   -0.016802
   6 C :   -0.363376   -0.016772
   7 C :   -0.363772   -0.016784
   8 C :   -0.358064   -0.016794
   9 C :   -0.363392   -0.016766
  10 C :   -0.358439   -0.016815
  11 C :   -0.134512    0.008172
  12 C :   -0.134435    0.008191
  13 C :   -0.134513    0.008173
  14 C :   -0.344847    0.041963
  15 C :   -0.344938    0.041959
  16 C :   -0.344813    0.041955
  17 C :   -0.327440    0.116498
  18 C :   -0.327680    0.116457
  19 C :   -0.327437    0.116480
  20 C :   -0.327378    0.116440
  21 C :   -0.327678    0.116408
  22 C :   -0.327132    0.116518
  23 C :    0.864113    0.326901
  24 C :    0.864028    0.326905
  25 C :   -0.332491    0.004537
  26 C :   -0.333053    0.004552
  27 N :    0.320897   -0.013634
  28 H :    0.155358    0.000066
  29 H :    0.078330   -0.000445
  30 H :    0.156438   -0.001291
  31 H :    0.073825   -0.001656
  32 H :    0.073858   -0.001665
  33 H :    0.153765   -0.001280
  34 H :    0.156478   -0.001291
  35 H :    0.073825   -0.001656
  36 H :    0.152970   -0.001067
  37 H :    0.085604   -0.000640
  38 H :    0.085683   -0.000627
  39 H :    0.160475   -0.001142
  40 H :    0.085725   -0.000626
  41 H :    0.160501   -0.001148
  42 H :    0.152974   -0.001069
  43 H :    0.085594   -0.000639
  44 H :    0.085674   -0.000626
  45 H :    0.160483   -0.001144
  46 H :    0.152995   -0.001073
  47 H :    0.085640   -0.000640
  48 H :    0.084734    0.000242
  49 H :    0.084729    0.000239
  50 H :    0.084734    0.000243
  51 H :    0.063228    0.042404
  52 H :    0.063258    0.042397
  53 H :    0.063225    0.042403
  54 H :    0.068670    0.045033
  55 H :    0.068724    0.045007
  56 H :    0.068653    0.045022
  57 H :    0.068680    0.045029
  58 H :    0.068739    0.045002
  59 H :    0.068597    0.045049
  60 H :    0.078328   -0.000445
  61 H :    0.155446    0.000067
  62 H :    0.156533    0.000059
  63 H :    0.078347   -0.000454
Sum of atomic charges         :   -1.0000000

LOEWDIN ATOMIC CHARGES AND SPIN POPULATIONS
-------------------------------------------
   0 C :   -0.103609    0.451367
   1 C :   -0.016100    0.010570
   2 C :   -0.020332    0.008992
   3 C :   -0.020562    0.008997
   4 C :   -0.020347    0.008992
   5 C :   -0.012823    0.010023
   6 C :   -0.013233    0.010001
   7 C :   -0.013232    0.010007
   8 C :   -0.012823    0.010021
   9 C :   -0.013233    0.009999
  10 C :   -0.012822    0.010030
  11 C :   -0.070900    0.001379
  12 C :   -0.070894    0.001379
  13 C :   -0.070900    0.001379
  14 C :   -0.110170    0.027515
  15 C :   -0.110148    0.027520
  16 C :   -0.110168    0.027515
  17 C :   -0.109220    0.040000
  18 C :   -0.109302    0.039972
  19 C :   -0.109266    0.039977
  20 C :   -0.109200    0.039991
  21 C :   -0.109283    0.039964
  22 C :   -0.109182    0.040005
  23 C :   -0.103625    0.451361
  24 C :   -0.103623    0.451368
  25 C :   -0.016097    0.010569
  26 C :   -0.016568    0.010575
  27 N :   -0.012531    0.006695
  28 H :   -0.010653    0.000534
  29 H :    0.025950   -0.000322
  30 H :   -0.009516    0.000430
  31 H :    0.024905   -0.000273
  32 H :    0.025073   -0.000268
  33 H :   -0.008726    0.000424
  34 H :   -0.009522    0.000430
  35 H :    0.024904   -0.000273
  36 H :   -0.013259    0.000524
  37 H :    0.030671    0.000253
  38 H :    0.030360    0.000250
  39 H :   -0.014905    0.000532
  40 H :    0.030337    0.000251
  41 H :   -0.014901    0.000531
  42 H :   -0.013268    0.000524
  43 H :    0.030667    0.000253
  44 H :    0.030356    0.000250
  45 H :   -0.014914    0.000531
  46 H :   -0.013255    0.000524
  47 H :    0.030647    0.000254
  48 H :    0.033626    0.000169
  49 H :    0.033631    0.000168
  50 H :    0.033626    0.000169
  51 H :    0.045400    0.019129
  52 H :    0.045405    0.019131
  53 H :    0.045400    0.019129
  54 H :    0.046965    0.021693
  55 H :    0.046949    0.021693
  56 H :    0.046958    0.021693
  57 H :    0.046968    0.021692
  58 H :    0.046952    0.021692
  59 H :    0.046974    0.021694
  60 H :    0.025944   -0.000322
  61 H :   -0.010674    0.000534
  62 H :   -0.010826    0.000535
  63 H :    0.025946   -0.000323

  Mayer bond orders larger than 0.100000
B(  0-C , 15-C ) :   1.0863 B(  0-C , 20-C ) :   1.0738 B(  0-C , 21-C ) :   1.0734
B(  0-C , 23-C ) :   0.2030 B(  0-C , 24-C ) :   0.2030 B(  0-C , 27-N ) :   0.1514
B(  1-C ,  4-C ) :   0.1459 B(  1-C , 15-C ) :   0.9635 B(  1-C , 16-C ) :   0.9635
B(  1-C , 28-H ) :   0.7776 B(  1-C , 29-H ) :   0.9813 B(  2-C , 17-C ) :   0.9767
B(  2-C , 21-C ) :   0.9768 B(  2-C , 25-C ) :   0.1460 B(  2-C , 30-H ) :   0.7784
B(  2-C , 31-H ) :   0.9785 B(  3-C , 19-C ) :   0.9771 B(  3-C , 22-C ) :   0.9769
B(  3-C , 26-C ) :   0.1456 B(  3-C , 32-H ) :   0.9785 B(  3-C , 33-H ) :   0.7804
B(  4-C , 18-C ) :   0.9768 B(  4-C , 20-C ) :   0.9767 B(  4-C , 34-H ) :   0.7785
B(  4-C , 35-H ) :   0.9785 B(  5-C ,  7-C ) :   0.1474 B(  5-C , 13-C ) :   0.9595
B(  5-C , 17-C ) :   0.9714 B(  5-C , 36-H ) :   0.7647 B(  5-C , 37-H ) :   0.9723
B(  6-C , 10-C ) :   0.1474 B(  6-C , 11-C ) :   0.9591 B(  6-C , 18-C ) :   0.9709
B(  6-C , 38-H ) :   0.9725 B(  6-C , 39-H ) :   0.7654 B(  7-C , 12-C ) :   0.9592
B(  7-C , 19-C ) :   0.9708 B(  7-C , 40-H ) :   0.9725 B(  7-C , 41-H ) :   0.7653
B(  8-C ,  9-C ) :   0.1474 B(  8-C , 11-C ) :   0.9595 B(  8-C , 20-C ) :   0.9715
B(  8-C , 42-H ) :   0.7647 B(  8-C , 43-H ) :   0.9723 B(  9-C , 13-C ) :   0.9591
B(  9-C , 21-C ) :   0.9709 B(  9-C , 44-H ) :   0.9725 B(  9-C , 45-H ) :   0.7654
B( 10-C , 12-C ) :   0.9596 B( 10-C , 22-C ) :   0.9713 B( 10-C , 46-H ) :   0.7646
B( 10-C , 47-H ) :   0.9723 B( 11-C , 27-N ) :   1.1239 B( 11-C , 48-H ) :   0.9982
B( 12-C , 27-N ) :   1.1239 B( 12-C , 49-H ) :   0.9981 B( 13-C , 27-N ) :   1.1239
B( 13-C , 50-H ) :   0.9981 B( 14-C , 17-C ) :   0.2187 B( 14-C , 19-C ) :   0.2188
B( 14-C , 23-C ) :   1.0863 B( 14-C , 25-C ) :   0.9634 B( 14-C , 26-C ) :   0.9636
B( 14-C , 51-H ) :   1.0140 B( 15-C , 20-C ) :   0.2186 B( 15-C , 21-C ) :   0.2188
B( 15-C , 25-C ) :   0.9636 B( 15-C , 52-H ) :   1.0140 B( 16-C , 18-C ) :   0.2188
B( 16-C , 22-C ) :   0.2187 B( 16-C , 24-C ) :   1.0863 B( 16-C , 26-C ) :   0.9635
B( 16-C , 53-H ) :   1.0140 B( 17-C , 19-C ) :   0.2227 B( 17-C , 23-C ) :   1.0740
B( 17-C , 54-H ) :   1.0080 B( 18-C , 22-C ) :   0.2226 B( 18-C , 24-C ) :   1.0736
B( 18-C , 55-H ) :   1.0080 B( 19-C , 23-C ) :   1.0736 B( 19-C , 56-H ) :   1.0079
B( 20-C , 21-C ) :   0.2227 B( 20-C , 57-H ) :   1.0079 B( 21-C , 58-H ) :   1.0080
B( 22-C , 24-C ) :   1.0740 B( 22-C , 59-H ) :   1.0079 B( 23-C , 24-C ) :   0.2030
B( 23-C , 27-N ) :   0.1514 B( 24-C , 27-N ) :   0.1513 B( 25-C , 60-H ) :   0.9813
B( 25-C , 61-H ) :   0.7775 B( 26-C , 62-H ) :   0.7800 B( 26-C , 63-H ) :   0.9814
B( 28-H , 34-H ) :   0.2210 B( 30-H , 61-H ) :   0.2211 B( 33-H , 62-H ) :   0.2188
B( 36-H , 41-H ) :   0.2404 B( 39-H , 46-H ) :   0.2404 B( 42-H , 45-H ) :   0.2404

FINAL SINGLE POINT ENERGY     -1103.169396744998

DIPOLE MOMENT
-------------
                                X             Y             Z
Electronic contribution:     -0.62842      -0.63164      -0.62828
Nuclear contribution   :      0.18839       0.19299       0.18822
                        -----------------------------------------
Total Dipole Moment    :     -0.44003      -0.43865      -0.44005
                        -----------------------------------------
Magnitude (a.u.)       :      0.76137
Magnitude (Debye)      :      1.93526

Rotational constants in cm-1:     0.009246     0.009141     0.009141
Rotational constants in MHz :   277.183012   274.048569   274.045290

                             ****ORCA TERMINATED NORMALLY****
TOTAL RUN TIME: 0 days 0 hours 3 minutes 23 seconds 249 msec
