                         Program Version 4.2.1 -  RELEASE  -
|  1> # Use EPR-II is a special basis set for epr, autoaux creates a large auxiliary basis
|  2> !PBE EPR-II AUTOAUX RIJCOSX
|  3>
|  4> # use original (unoptimized) cluster xyz
|  5> *xyzfile -1 3 nv.xyz
|  6>
|  7> # Parallelization
|  8> %PAL NPROCS 72 END
|  9>
| 10> # ZFS calculation
| 11> %EPRNMR DTENSOR SSANDSO
| 12>     DSS     UNO
| 13>     DSOC    CP
| 14> END
| 15>
| 16>                          ****END OF INPUT****

CARTESIAN COORDINATES (ANGSTROEM)
---------------------------------
  C      1.157558    1.015112   -2.249811
  C      1.378402   -0.467839   -4.258023
  C     -0.566330    2.847682   -2.199697
  C     -2.182908   -1.914276   -2.199804
  C      2.749355   -0.933294   -2.199700
  C     -1.654688    1.875893   -0.144983
  C      1.643784   -1.885455   -0.144986
  C     -2.454741   -0.480827   -0.145035
  C      2.451916    0.495062   -0.144933
  C      0.810965    2.366289   -0.144931
  C     -0.797221   -2.370948   -0.145037
  C      1.346403   -0.457083    0.395617
  C     -1.069052   -0.937495    0.395566
  C     -0.277373    1.394558    0.395618
  C     -1.381677    0.469134   -3.737621
  C      1.097166    0.962154   -3.737569
  C      0.284711   -1.431099   -3.737623
  C     -1.653584    1.875763   -1.693673
  C      1.643797   -1.884341   -1.693676
  C     -2.453765   -0.481332   -1.693726
  C      2.451270    0.494234   -1.693623
  C      0.810058    2.365759   -1.693621
  C     -0.797596   -2.369912   -1.693727
  C     -1.457798    0.494942   -2.249865
  C      0.300360   -1.509940   -2.249867
  C     -0.283865    1.427694   -4.258021
  C     -1.094311   -0.959639   -4.258075
  N      0.000000    0.000000    0.000000
  H      2.335822   -0.792870   -3.907906
  H      1.371633   -0.465517   -5.328003
  H     -0.569735    2.864918   -3.269544
  H     -0.762431    3.833619   -1.833101
  H     -2.936895   -2.575478   -1.826663
  H     -2.201360   -1.930457   -3.269519
  H      2.765997   -0.938920   -3.269548
  H      3.701247   -1.256449   -1.833106
  H     -2.421687    1.218385    0.207581
  H     -1.836839    2.871186    0.203028
  H      2.602406   -2.203986    0.207839
  H      0.884572   -2.554456    0.202756
  H     -3.209913   -1.151767    0.207753
  H     -2.654510    0.511157    0.202744
  H      2.265993    1.488043    0.207668
  H      3.404935    0.155150    0.203076
  H      0.607496    3.355743    0.207895
  H      1.769928    2.043289    0.202848
  H      0.155683   -2.706439    0.207562
  H     -1.568107   -3.026346    0.202936
  H      1.358214   -0.461117    1.465539
  H     -1.078464   -0.945750    1.465488
  H     -0.279828    1.406793    1.465541
  H     -2.333252    0.792181   -4.105093
  H      1.852725    1.624734   -4.105005
  H      0.480746   -2.416707   -4.105096
  H     -2.609947    2.208239   -2.039696
  H      1.848556   -2.875928   -2.039701
  H     -3.414878   -0.162851   -2.039749
  H      3.217388    1.156246   -2.039611
  H      1.566431    3.038882   -2.039609
  H     -0.607332   -3.364382   -2.039752
  H     -0.282492    1.420905   -5.328007
  H     -0.481091    2.419293   -3.907684
  H     -1.854510   -1.626289   -3.907994
  H     -1.088902   -0.954895   -5.328055

 Total Charge           Charge          ....   -1
 Multiplicity           Mult            ....    3
 Number of Electrons    NEL             ....  206
 Basis Dimension        Dim             ....  728

ORBITAL ENERGIES
----------------
                 SPIN UP ORBITALS
  NO   OCC          E(Eh)            E(eV)
   0   1.0000     -13.855760      -377.0344
   1   1.0000      -9.801503      -266.7124
   2   1.0000      -9.801330      -266.7077
   3   1.0000      -9.801107      -266.7017
   4   1.0000      -9.762982      -265.6642
   5   1.0000      -9.762856      -265.6608
   6   1.0000      -9.762817      -265.6597
   7   1.0000      -9.762758      -265.6581
   8   1.0000      -9.762748      -265.6579
   9   1.0000      -9.762659      -265.6555
  10   1.0000      -9.755823      -265.4694
  11   1.0000      -9.755723      -265.4667
  12   1.0000      -9.755473      -265.4599
  13   1.0000      -9.749124      -265.2872
  14   1.0000      -9.748993      -265.2836
  15   1.0000      -9.748912      -265.2814
  16   1.0000      -9.748500      -265.2702
  17   1.0000      -9.748369      -265.2666
  18   1.0000      -9.748311      -265.2650
  19   1.0000      -9.740009      -265.0391
  20   1.0000      -9.739687      -265.0304
  21   1.0000      -9.739401      -265.0226
  22   1.0000      -9.735821      -264.9251
  23   1.0000      -9.735404      -264.9138
  24   1.0000      -9.735392      -264.9135
  25   1.0000      -9.734879      -264.8995
  26   1.0000      -9.734504      -264.8893
  27   1.0000      -9.734226      -264.8818
  28   1.0000      -0.729721       -19.8567
  29   1.0000      -0.667542       -18.1647
  30   1.0000      -0.652376       -17.7520
  31   1.0000      -0.652335       -17.7509
  32   1.0000      -0.609388       -16.5823
  33   1.0000      -0.598176       -16.2772
  34   1.0000      -0.598072       -16.2744
  35   1.0000      -0.582522       -15.8512
  36   1.0000      -0.582411       -15.8482
  37   1.0000      -0.545797       -14.8519
  38   1.0000      -0.521636       -14.1944
  39   1.0000      -0.521561       -14.1924
  40   1.0000      -0.519000       -14.1227
  41   1.0000      -0.515849       -14.0370
  42   1.0000      -0.515812       -14.0360
  43   1.0000      -0.501963       -13.6591
  44   1.0000      -0.444686       -12.1005
  45   1.0000      -0.444624       -12.0988
  46   1.0000      -0.423891       -11.5346
  47   1.0000      -0.405295       -11.0286
  48   1.0000      -0.405264       -11.0278
  49   1.0000      -0.400326       -10.8934
  50   1.0000      -0.397594       -10.8191
  51   1.0000      -0.384094       -10.4517
  52   1.0000      -0.383988       -10.4488
  53   1.0000      -0.358463        -9.7543
  54   1.0000      -0.357996        -9.7416
  55   1.0000      -0.357909        -9.7392
  56   1.0000      -0.346512        -9.4291
  57   1.0000      -0.312912        -8.5148
  58   1.0000      -0.308983        -8.4079
  59   1.0000      -0.308935        -8.4065
  60   1.0000      -0.301324        -8.1995
  61   1.0000      -0.301235        -8.1970
  62   1.0000      -0.282105        -7.6765
  63   1.0000      -0.279309        -7.6004
  64   1.0000      -0.279211        -7.5977
  65   1.0000      -0.275717        -7.5027
  66   1.0000      -0.275681        -7.5017
  67   1.0000      -0.242699        -6.6042
  68   1.0000      -0.242655        -6.6030
  69   1.0000      -0.238276        -6.4838
  70   1.0000      -0.231123        -6.2892
  71   1.0000      -0.228478        -6.2172
  72   1.0000      -0.226333        -6.1588
  73   1.0000      -0.226291        -6.1577
  74   1.0000      -0.212510        -5.7827
  75   1.0000      -0.212432        -5.7806
  76   1.0000      -0.210170        -5.7190
  77   1.0000      -0.197059        -5.3622
  78   1.0000      -0.190645        -5.1877
  79   1.0000      -0.190620        -5.1870
  80   1.0000      -0.179324        -4.8796
  81   1.0000      -0.179300        -4.8790
  82   1.0000      -0.171477        -4.6661
  83   1.0000      -0.166816        -4.5393
  84   1.0000      -0.166770        -4.5381
  85   1.0000      -0.161139        -4.3848
  86   1.0000      -0.158705        -4.3186
  87   1.0000      -0.156254        -4.2519
  88   1.0000      -0.156175        -4.2497
  89   1.0000      -0.146975        -3.9994
  90   1.0000      -0.146897        -3.9973
  91   1.0000      -0.135130        -3.6771
  92   1.0000      -0.119942        -3.2638
  93   1.0000      -0.119869        -3.2618
  94   1.0000      -0.095569        -2.6006
  95   1.0000      -0.095560        -2.6003
  96   1.0000      -0.092641        -2.5209
  97   1.0000      -0.077106        -2.0982
  98   1.0000      -0.059055        -1.6070
  99   1.0000      -0.056925        -1.5490
 100   1.0000      -0.056484        -1.5370
 101   1.0000       0.001992         0.0542
 102   1.0000       0.047243         1.2856
 103   1.0000       0.047624         1.2959
 104   0.0000       0.096870         2.6360
 105   0.0000       0.113779         3.0961
 106   0.0000       0.116277         3.1641
 107   0.0000       0.117228         3.1899
 108   0.0000       0.124460         3.3867

                 SPIN DOWN ORBITALS
  NO   OCC          E(Eh)            E(eV)
   0   1.0000     -13.855708      -377.0330
   1   1.0000      -9.801457      -266.7112
   2   1.0000      -9.801284      -266.7065
   3   1.0000      -9.801060      -266.7004
   4   1.0000      -9.763215      -265.6706
   5   1.0000      -9.763089      -265.6672
   6   1.0000      -9.763049      -265.6661
   7   1.0000      -9.762988      -265.6644
   8   1.0000      -9.762981      -265.6642
   9   1.0000      -9.762888      -265.6617
  10   1.0000      -9.756223      -265.4803
  11   1.0000      -9.756122      -265.4776
  12   1.0000      -9.755871      -265.4707
  13   1.0000      -9.749018      -265.2843
  14   1.0000      -9.748886      -265.2807
  15   1.0000      -9.748805      -265.2785
  16   1.0000      -9.748393      -265.2673
  17   1.0000      -9.748263      -265.2637
  18   1.0000      -9.748203      -265.2621
  19   1.0000      -9.739854      -265.0349
  20   1.0000      -9.739530      -265.0261
  21   1.0000      -9.739244      -265.0183
  22   1.0000      -9.735626      -264.9199
  23   1.0000      -9.735209      -264.9085
  24   1.0000      -9.735197      -264.9082
  25   1.0000      -9.726244      -264.6645
  26   1.0000      -9.725781      -264.6520
  27   1.0000      -9.725482      -264.6438
  28   1.0000      -0.729100       -19.8398
  29   1.0000      -0.664548       -18.0833
  30   1.0000      -0.650507       -17.7012
  31   1.0000      -0.650459       -17.6999
  32   1.0000      -0.608925       -16.5697
  33   1.0000      -0.597701       -16.2643
  34   1.0000      -0.597599       -16.2615
  35   1.0000      -0.579795       -15.7770
  36   1.0000      -0.579683       -15.7740
  37   1.0000      -0.545190       -14.8354
  38   1.0000      -0.520921       -14.1750
  39   1.0000      -0.520827       -14.1724
  40   1.0000      -0.518324       -14.1043
  41   1.0000      -0.512627       -13.9493
  42   1.0000      -0.512576       -13.9479
  43   1.0000      -0.495610       -13.4862
  44   1.0000      -0.444049       -12.0832
  45   1.0000      -0.443989       -12.0815
  46   1.0000      -0.423678       -11.5289
  47   1.0000      -0.404532       -11.0079
  48   1.0000      -0.404502       -11.0071
  49   1.0000      -0.399242       -10.8639
  50   1.0000      -0.395590       -10.7645
  51   1.0000      -0.381109       -10.3705
  52   1.0000      -0.381000       -10.3675
  53   1.0000      -0.357255        -9.7214
  54   1.0000      -0.356454        -9.6996
  55   1.0000      -0.356348        -9.6967
  56   1.0000      -0.341635        -9.2964
  57   1.0000      -0.310378        -8.4458
  58   1.0000      -0.307443        -8.3660
  59   1.0000      -0.307403        -8.3649
  60   1.0000      -0.297582        -8.0976
  61   1.0000      -0.297482        -8.0949
  62   1.0000      -0.280720        -7.6388
  63   1.0000      -0.277420        -7.5490
  64   1.0000      -0.277318        -7.5462
  65   1.0000      -0.274008        -7.4561
  66   1.0000      -0.273973        -7.4552
  67   1.0000      -0.240957        -6.5568
  68   1.0000      -0.240906        -6.5554
  69   1.0000      -0.236315        -6.4305
  70   1.0000      -0.228918        -6.2292
  71   1.0000      -0.225387        -6.1331
  72   1.0000      -0.224810        -6.1174
  73   1.0000      -0.224768        -6.1162
  74   1.0000      -0.212124        -5.7722
  75   1.0000      -0.212052        -5.7702
  76   1.0000      -0.209927        -5.7124
  77   1.0000      -0.195800        -5.3280
  78   1.0000      -0.187689        -5.1073
  79   1.0000      -0.187672        -5.1068
  80   1.0000      -0.178338        -4.8528
  81   1.0000      -0.178318        -4.8523
  82   1.0000      -0.171117        -4.6563
  83   1.0000      -0.166042        -4.5182
  84   1.0000      -0.165994        -4.5169
  85   1.0000      -0.159834        -4.3493
  86   1.0000      -0.156097        -4.2476
  87   1.0000      -0.154822        -4.2129
  88   1.0000      -0.154745        -4.2108
  89   1.0000      -0.144839        -3.9413
  90   1.0000      -0.144758        -3.9391
  91   1.0000      -0.132035        -3.5929
  92   1.0000      -0.117127        -3.1872
  93   1.0000      -0.117041        -3.1849
  94   1.0000      -0.093197        -2.5360
  95   1.0000      -0.093185        -2.5357
  96   1.0000      -0.090794        -2.4706
  97   1.0000      -0.060908        -1.6574
  98   1.0000      -0.058554        -1.5933
  99   1.0000      -0.056525        -1.5381
 100   1.0000      -0.056088        -1.5262
 101   1.0000       0.023390         0.6365
 102   0.0000       0.082990         2.2583
 103   0.0000       0.083898         2.2830
 104   0.0000       0.097730         2.6594
 105   0.0000       0.117908         3.2084
 106   0.0000       0.119088         3.2406

MULLIKEN ATOMIC CHARGES AND SPIN POPULATIONS
--------------------------------------------
   0 C :    0.916100    0.324991
   1 C :   -0.320560    0.003487
   2 C :   -0.360892   -0.030849
   3 C :   -0.382795   -0.029275
   4 C :   -0.366488   -0.032643
   5 C :   -0.358098   -0.011282
   6 C :   -0.358446   -0.011407
   7 C :   -0.344631   -0.014787
   8 C :   -0.327443   -0.014898
   9 C :   -0.339544   -0.015066
  10 C :   -0.332989   -0.015603
  11 C :   -0.164732    0.009254
  12 C :   -0.171304    0.009683
  13 C :   -0.171172    0.009285
  14 C :   -0.326756    0.035426
  15 C :   -0.356836    0.048047
  16 C :   -0.335794    0.039468
  17 C :   -0.287712    0.093652
  18 C :   -0.293734    0.097055
  19 C :   -0.305612    0.099381
  20 C :   -0.328794    0.107658
  21 C :   -0.331301    0.110220
  22 C :   -0.316471    0.103161
  23 C :    0.892486    0.356008
  24 C :    0.888454    0.349049
  25 C :   -0.338878    0.005378
  26 C :   -0.367185    0.005026
  27 N :    0.391543   -0.017159
  28 H :    0.150953    0.000681
  29 H :    0.073727   -0.000617
  30 H :    0.158315   -0.001219
  31 H :    0.068597   -0.001645
  32 H :    0.078584   -0.001994
  33 H :    0.158149   -0.001447
  34 H :    0.163106   -0.001196
  35 H :    0.069513   -0.001349
  36 H :    0.154473   -0.001289
  37 H :    0.079718   -0.000831
  38 H :    0.074877   -0.000599
  39 H :    0.158631   -0.001369
  40 H :    0.074270   -0.000872
  41 H :    0.151775   -0.000983
  42 H :    0.144507   -0.000803
  43 H :    0.068044   -0.000417
  44 H :    0.070004   -0.000537
  45 H :    0.151123   -0.000752
  46 H :    0.141887   -0.000586
  47 H :    0.069754   -0.000643
  48 H :    0.084757    0.000253
  49 H :    0.090536    0.000225
  50 H :    0.088978    0.000256
  51 H :    0.055191    0.043188
  52 H :    0.053277    0.042413
  53 H :    0.055772    0.042116
  54 H :    0.050923    0.046500
  55 H :    0.056051    0.045871
  56 H :    0.053435    0.046720
  57 H :    0.061596    0.045374
  58 H :    0.059044    0.046064
  59 H :    0.058503    0.046384
  60 H :    0.075705   -0.000641
  61 H :    0.150721    0.000535
  62 H :    0.162178    0.000593
  63 H :    0.082911   -0.000639
Sum of atomic charges         :   -1.0000000

LOEWDIN ATOMIC CHARGES AND SPIN POPULATIONS
-------------------------------------------
   0 C :   -0.104123    0.453746
   1 C :   -0.015076    0.010509
   2 C :   -0.020617    0.008973
   3 C :   -0.023142    0.009121
   4 C :   -0.021316    0.008686
   5 C :   -0.012378    0.010047
   6 C :   -0.010989    0.010005
   7 C :   -0.011879    0.009980
   8 C :   -0.009241    0.010026
   9 C :   -0.010480    0.010106
  10 C :   -0.010090    0.009980
  11 C :   -0.071227    0.001296
  12 C :   -0.072166    0.001260
  13 C :   -0.072237    0.001257
  14 C :   -0.108088    0.026052
  15 C :   -0.108792    0.027128
  16 C :   -0.107935    0.026149
  17 C :   -0.104035    0.036319
  18 C :   -0.104807    0.036435
  19 C :   -0.105583    0.037281
  20 C :   -0.106094    0.037209
  21 C :   -0.106844    0.038020
  22 C :   -0.106411    0.037739
  23 C :   -0.104299    0.459555
  24 C :   -0.104656    0.458676
  25 C :   -0.015781    0.010800
  26 C :   -0.018561    0.010737
  27 N :   -0.011197    0.007029
  28 H :   -0.010990    0.000552
  29 H :    0.025124   -0.000343
  30 H :   -0.009954    0.000445
  31 H :    0.024104   -0.000300
  32 H :    0.025074   -0.000293
  33 H :   -0.008342    0.000435
  34 H :   -0.009732    0.000450
  35 H :    0.024243   -0.000285
  36 H :   -0.013885    0.000522
  37 H :    0.030069    0.000231
  38 H :    0.029104    0.000233
  39 H :   -0.016061    0.000527
  40 H :    0.029383    0.000232
  41 H :   -0.015555    0.000524
  42 H :   -0.014802    0.000520
  43 H :    0.028957    0.000256
  44 H :    0.028777    0.000253
  45 H :   -0.016028    0.000526
  46 H :   -0.014117    0.000511
  47 H :    0.029093    0.000238
  48 H :    0.033348    0.000184
  49 H :    0.033694    0.000170
  50 H :    0.033724    0.000181
  51 H :    0.043782    0.019599
  52 H :    0.043755    0.019289
  53 H :    0.044041    0.019430
  54 H :    0.044853    0.021938
  55 H :    0.045361    0.021917
  56 H :    0.044990    0.022036
  57 H :    0.045692    0.021695
  58 H :    0.045375    0.021827
  59 H :    0.045312    0.022007
  60 H :    0.025158   -0.000351
  61 H :   -0.010951    0.000544
  62 H :   -0.010396    0.000539
  63 H :    0.025840   -0.000360

  Mayer bond orders larger than 0.100000
B(  0-C , 15-C ) :   1.0535 B(  0-C , 20-C ) :   1.0516 B(  0-C , 21-C ) :   1.0477
B(  0-C , 23-C ) :   0.1981 B(  0-C , 24-C ) :   0.1930 B(  0-C , 27-N ) :   0.1627
B(  1-C ,  4-C ) :   0.1527 B(  1-C , 15-C ) :   0.9590 B(  1-C , 16-C ) :   0.9586
B(  1-C , 28-H ) :   0.7708 B(  1-C , 29-H ) :   0.9795 B(  2-C , 17-C ) :   0.9821
B(  2-C , 21-C ) :   0.9782 B(  2-C , 25-C ) :   0.1462 B(  2-C , 30-H ) :   0.7748
B(  2-C , 31-H ) :   0.9792 B(  3-C , 19-C ) :   0.9820 B(  3-C , 22-C ) :   0.9854
B(  3-C , 26-C ) :   0.1489 B(  3-C , 32-H ) :   0.9806 B(  3-C , 33-H ) :   0.7770
B(  4-C , 18-C ) :   0.9834 B(  4-C , 20-C ) :   0.9782 B(  4-C , 34-H ) :   0.7700
B(  4-C , 35-H ) :   0.9738 B(  5-C ,  7-C ) :   0.1491 B(  5-C , 13-C ) :   0.9608
B(  5-C , 17-C ) :   0.9683 B(  5-C , 36-H ) :   0.7629 B(  5-C , 37-H ) :   0.9735
B(  6-C , 10-C ) :   0.1456 B(  6-C , 11-C ) :   0.9554 B(  6-C , 18-C ) :   0.9677
B(  6-C , 38-H ) :   0.9786 B(  6-C , 39-H ) :   0.7678 B(  7-C , 12-C ) :   0.9591
B(  7-C , 19-C ) :   0.9622 B(  7-C , 40-H ) :   0.9744 B(  7-C , 41-H ) :   0.7651
B(  8-C ,  9-C ) :   0.1428 B(  8-C , 11-C ) :   0.9483 B(  8-C , 20-C ) :   0.9707
B(  8-C , 42-H ) :   0.7705 B(  8-C , 43-H ) :   0.9745 B(  9-C , 13-C ) :   0.9464
B(  9-C , 21-C ) :   0.9672 B(  9-C , 44-H ) :   0.9758 B(  9-C , 45-H ) :   0.7715
B( 10-C , 12-C ) :   0.9524 B( 10-C , 22-C ) :   0.9641 B( 10-C , 46-H ) :   0.7667
B( 10-C , 47-H ) :   0.9757 B( 11-C , 12-C ) :   0.1085 B( 11-C , 13-C ) :   0.1088
B( 11-C , 27-N ) :   1.0953 B( 11-C , 48-H ) :   1.0169 B( 12-C , 13-C ) :   0.1071
B( 12-C , 27-N ) :   1.1036 B( 12-C , 49-H ) :   1.0099 B( 13-C , 27-N ) :   1.1089
B( 13-C , 50-H ) :   1.0122 B( 14-C , 17-C ) :   0.2125 B( 14-C , 19-C ) :   0.2158
B( 14-C , 23-C ) :   1.0826 B( 14-C , 25-C ) :   0.9589 B( 14-C , 26-C ) :   0.9640
B( 14-C , 51-H ) :   1.0056 B( 15-C , 20-C ) :   0.2297 B( 15-C , 21-C ) :   0.2293
B( 15-C , 25-C ) :   0.9604 B( 15-C , 52-H ) :   1.0300 B( 16-C , 18-C ) :   0.2136
B( 16-C , 22-C ) :   0.2197 B( 16-C , 24-C ) :   1.0723 B( 16-C , 26-C ) :   0.9660
B( 16-C , 53-H ) :   1.0140 B( 17-C , 19-C ) :   0.2125 B( 17-C , 23-C ) :   1.0632
B( 17-C , 54-H ) :   0.9978 B( 18-C , 22-C ) :   0.2134 B( 18-C , 24-C ) :   1.0678
B( 18-C , 55-H ) :   0.9969 B( 19-C , 23-C ) :   1.0691 B( 19-C , 56-H ) :   1.0008
B( 20-C , 21-C ) :   0.2204 B( 20-C , 57-H ) :   1.0120 B( 21-C , 58-H ) :   1.0168
B( 22-C , 24-C ) :   1.0602 B( 22-C , 59-H ) :   1.0059 B( 23-C , 24-C ) :   0.1945
B( 23-C , 27-N ) :   0.1543 B( 24-C , 27-N ) :   0.1583 B( 25-C , 60-H ) :   0.9838
B( 25-C , 61-H ) :   0.7759 B( 26-C , 62-H ) :   0.7770 B( 26-C , 63-H ) :   0.9810
B( 28-H , 34-H ) :   0.2267 B( 30-H , 61-H ) :   0.2261 B( 33-H , 62-H ) :   0.2229
B( 36-H , 41-H ) :   0.2457 B( 39-H , 46-H ) :   0.2454 B( 42-H , 45-H ) :   0.2437

FINAL SINGLE POINT ENERGY     -1103.167986831646

DIPOLE MOMENT
-------------
                                X             Y             Z
Electronic contribution:      0.00658      -0.00139       1.06735
Nuclear contribution   :     -0.00294      -0.00242      -0.32886
                        -----------------------------------------
Total Dipole Moment    :      0.00364      -0.00382       0.73849
                        -----------------------------------------
Magnitude (a.u.)       :      0.73851
Magnitude (Debye)      :      1.87714

Rotational constants in cm-1:     0.009246     0.009141     0.009141
Rotational constants in MHz :   277.183097   274.048600   274.045280

                             ****ORCA TERMINATED NORMALLY****
TOTAL RUN TIME: 0 days 0 hours 4 minutes 39 seconds 864 msec
