                         Program Version 4.2.1 -  RELEASE  -
|  1> # Use EPR-II is a special basis set for epr, autoaux creates a large auxiliary basis
|  2> !PBE EPR-II AUTOAUX RIJCOSX
|  3>
|  4> # use original (unoptimized) cluster xyz
|  5> *xyzfile -1 3 nv.xyz
|  6>
|  7> # Parallelization
|  8> %PAL NPROCS 72 END
|  9>
| 10> # ZFS calculation
| 11> %EPRNMR DTENSOR SSANDSO
| 12>     DSS     UNO
| 13>     DSOC    CP
| 14> END
| 15>
| 16>                          ****END OF INPUT****

CARTESIAN COORDINATES (ANGSTROEM)
---------------------------------
  C      0.250824    1.519039   -2.249811
  C      1.362313    0.512804   -4.258023
  C     -2.244329    1.842012   -2.199697
  C     -0.473006   -2.864578   -2.199804
  C      2.717356    1.022726   -2.199700
  C     -2.469145    0.400362   -0.144983
  C      2.466782   -0.414671   -0.144986
  C     -1.592507   -1.928956   -0.145035
  C      1.581293    1.938168   -0.144933
  C     -0.874274    2.343637   -0.144931
  C      0.887854   -2.338519   -0.145037
  C      1.330754    0.500819    0.395617
  C     -0.231648   -1.402893    0.395566
  C     -1.099110    0.902045    0.395618
  C     -1.365667   -0.513881   -3.737621
  C      0.237737    1.439790   -3.737569
  C      1.127964   -0.925636   -3.737623
  C     -2.468209    0.400962   -1.693673
  C      2.466086   -0.413801   -1.693676
  C     -1.591432   -1.928727   -1.693726
  C      1.581318    1.937118   -1.693623
  C     -0.874639    2.342651   -1.693621
  C      0.886906   -2.337956   -1.693727
  C     -1.440881   -0.542222   -2.249865
  C      1.190077   -0.976653   -2.249867
  C     -1.125150    0.923541   -4.258021
  C     -0.237125   -1.436035   -4.258075
  N      0.000000    0.000000    0.000000
  H      2.308607    0.868933   -3.907906
  H      1.355607    0.510305   -5.328003
  H     -2.257896    1.853175   -3.269544
  H     -3.021389    2.479746   -1.833101
  H     -0.636384   -3.854018   -1.826663
  H     -0.477006   -2.888792   -3.269519
  H      2.733789    1.028935   -3.269548
  H      3.658185    1.376798   -1.833106
  H     -2.644925   -0.594478    0.207581
  H     -3.241357    1.054178    0.203028
  H      3.409881   -0.052755    0.207839
  H      2.304313   -1.413454    0.202756
  H     -1.750623   -2.926675    0.207753
  H     -2.376239   -1.288874    0.202744
  H      0.807632    2.587804    0.207668
  H      2.533625    2.280000    0.203076
  H     -1.659260    2.979416    0.207895
  H      0.071924    2.702314    0.202848
  H      1.837291   -1.993341    0.207562
  H      0.707730   -3.334194    0.202936
  H      1.342443    0.505194    1.465539
  H     -0.233686   -1.415244    1.465488
  H     -1.108770    0.909944    1.465541
  H     -2.306183   -0.867835   -4.105093
  H      0.401455    2.431292   -4.105005
  H      1.904765   -1.563158   -4.105096
  H     -3.418408    0.051259   -2.039696
  H      3.253422   -1.050411   -2.039701
  H     -2.536425   -2.292261   -2.039749
  H      1.753560    2.934880   -2.039611
  H     -0.716978    3.342821   -2.039609
  H      1.664867   -2.985990   -2.039752
  H     -1.119782    0.919164   -5.328007
  H     -1.906672    1.564937   -3.907684
  H     -0.401849   -2.433627   -3.907994
  H     -0.235954   -1.428935   -5.328055

 Total Charge           Charge          ....   -1
 Multiplicity           Mult            ....    3
 Number of Electrons    NEL             ....  206
 Basis Dimension        Dim             ....  728

ORBITAL ENERGIES
----------------
                 SPIN UP ORBITALS
  NO   OCC          E(Eh)            E(eV)
   0   1.0000     -13.855711      -377.0331
   1   1.0000      -9.801414      -266.7100
   2   1.0000      -9.801324      -266.7076
   3   1.0000      -9.801096      -266.7014
   4   1.0000      -9.762887      -265.6617
   5   1.0000      -9.762833      -265.6602
   6   1.0000      -9.762786      -265.6589
   7   1.0000      -9.762752      -265.6580
   8   1.0000      -9.762707      -265.6568
   9   1.0000      -9.762593      -265.6537
  10   1.0000      -9.755810      -265.4691
  11   1.0000      -9.755699      -265.4661
  12   1.0000      -9.755383      -265.4575
  13   1.0000      -9.749104      -265.2866
  14   1.0000      -9.749098      -265.2864
  15   1.0000      -9.748943      -265.2822
  16   1.0000      -9.748572      -265.2721
  17   1.0000      -9.748245      -265.2632
  18   1.0000      -9.748117      -265.2598
  19   1.0000      -9.739718      -265.0312
  20   1.0000      -9.739654      -265.0295
  21   1.0000      -9.739590      -265.0277
  22   1.0000      -9.735865      -264.9264
  23   1.0000      -9.735406      -264.9139
  24   1.0000      -9.735265      -264.9100
  25   1.0000      -9.734722      -264.8953
  26   1.0000      -9.734544      -264.8904
  27   1.0000      -9.734148      -264.8796
  28   1.0000      -0.729692       -19.8559
  29   1.0000      -0.667498       -18.1635
  30   1.0000      -0.652342       -17.7511
  31   1.0000      -0.652323       -17.7506
  32   1.0000      -0.609367       -16.5817
  33   1.0000      -0.598257       -16.2794
  34   1.0000      -0.597978       -16.2718
  35   1.0000      -0.582497       -15.8505
  36   1.0000      -0.582393       -15.8477
  37   1.0000      -0.545787       -14.8516
  38   1.0000      -0.521609       -14.1937
  39   1.0000      -0.521562       -14.1924
  40   1.0000      -0.518987       -14.1224
  41   1.0000      -0.515985       -14.0407
  42   1.0000      -0.515682       -14.0324
  43   1.0000      -0.501961       -13.6591
  44   1.0000      -0.444699       -12.1009
  45   1.0000      -0.444605       -12.0983
  46   1.0000      -0.423878       -11.5343
  47   1.0000      -0.405279       -11.0282
  48   1.0000      -0.405265       -11.0278
  49   1.0000      -0.400307       -10.8929
  50   1.0000      -0.397561       -10.8182
  51   1.0000      -0.384084       -10.4515
  52   1.0000      -0.383959       -10.4481
  53   1.0000      -0.358455        -9.7541
  54   1.0000      -0.358010        -9.7419
  55   1.0000      -0.357868        -9.7381
  56   1.0000      -0.346482        -9.4282
  57   1.0000      -0.312902        -8.5145
  58   1.0000      -0.308983        -8.4079
  59   1.0000      -0.308904        -8.4057
  60   1.0000      -0.301297        -8.1987
  61   1.0000      -0.301245        -8.1973
  62   1.0000      -0.282094        -7.6762
  63   1.0000      -0.279290        -7.5999
  64   1.0000      -0.279215        -7.5978
  65   1.0000      -0.275681        -7.5017
  66   1.0000      -0.275637        -7.5005
  67   1.0000      -0.242681        -6.6037
  68   1.0000      -0.242636        -6.6025
  69   1.0000      -0.238258        -6.4833
  70   1.0000      -0.231097        -6.2885
  71   1.0000      -0.228462        -6.2168
  72   1.0000      -0.226334        -6.1589
  73   1.0000      -0.226248        -6.1565
  74   1.0000      -0.212523        -5.7830
  75   1.0000      -0.212398        -5.7796
  76   1.0000      -0.210154        -5.7186
  77   1.0000      -0.197041        -5.3618
  78   1.0000      -0.190635        -5.1874
  79   1.0000      -0.190607        -5.1867
  80   1.0000      -0.179311        -4.8793
  81   1.0000      -0.179300        -4.8790
  82   1.0000      -0.171450        -4.6654
  83   1.0000      -0.166794        -4.5387
  84   1.0000      -0.166765        -4.5379
  85   1.0000      -0.161142        -4.3849
  86   1.0000      -0.158685        -4.3180
  87   1.0000      -0.156265        -4.2522
  88   1.0000      -0.156174        -4.2497
  89   1.0000      -0.146987        -3.9997
  90   1.0000      -0.146873        -3.9966
  91   1.0000      -0.135120        -3.6768
  92   1.0000      -0.119941        -3.2638
  93   1.0000      -0.119865        -3.2617
  94   1.0000      -0.095589        -2.6011
  95   1.0000      -0.095551        -2.6001
  96   1.0000      -0.092628        -2.5205
  97   1.0000      -0.077074        -2.0973
  98   1.0000      -0.059066        -1.6073
  99   1.0000      -0.056831        -1.5465
 100   1.0000      -0.056574        -1.5395
 101   1.0000       0.002026         0.0551
 102   1.0000       0.047261         1.2860
 103   1.0000       0.047614         1.2956
 104   0.0000       0.096906         2.6369
 105   0.0000       0.113793         3.0965
 106   0.0000       0.116290         3.1644
 107   0.0000       0.117249         3.1905
 108   0.0000       0.124558         3.3894

                 SPIN DOWN ORBITALS
  NO   OCC          E(Eh)            E(eV)
   0   1.0000     -13.855659      -377.0317
   1   1.0000      -9.801368      -266.7088
   2   1.0000      -9.801278      -266.7063
   3   1.0000      -9.801049      -266.7001
   4   1.0000      -9.763120      -265.6680
   5   1.0000      -9.763066      -265.6665
   6   1.0000      -9.763016      -265.6652
   7   1.0000      -9.762984      -265.6643
   8   1.0000      -9.762940      -265.6631
   9   1.0000      -9.762824      -265.6599
  10   1.0000      -9.756211      -265.4800
  11   1.0000      -9.756097      -265.4769
  12   1.0000      -9.755781      -265.4683
  13   1.0000      -9.748996      -265.2837
  14   1.0000      -9.748991      -265.2835
  15   1.0000      -9.748836      -265.2793
  16   1.0000      -9.748466      -265.2692
  17   1.0000      -9.748138      -265.2603
  18   1.0000      -9.748011      -265.2569
  19   1.0000      -9.739561      -265.0269
  20   1.0000      -9.739497      -265.0252
  21   1.0000      -9.739435      -265.0235
  22   1.0000      -9.735670      -264.9211
  23   1.0000      -9.735211      -264.9086
  24   1.0000      -9.735071      -264.9047
  25   1.0000      -9.726076      -264.6600
  26   1.0000      -9.725832      -264.6533
  27   1.0000      -9.725401      -264.6416
  28   1.0000      -0.729071       -19.8390
  29   1.0000      -0.664504       -18.0821
  30   1.0000      -0.650469       -17.7002
  31   1.0000      -0.650452       -17.6997
  32   1.0000      -0.608904       -16.5691
  33   1.0000      -0.597784       -16.2665
  34   1.0000      -0.597502       -16.2589
  35   1.0000      -0.579769       -15.7763
  36   1.0000      -0.579665       -15.7735
  37   1.0000      -0.545180       -14.8351
  38   1.0000      -0.520889       -14.1741
  39   1.0000      -0.520831       -14.1725
  40   1.0000      -0.518311       -14.1040
  41   1.0000      -0.512761       -13.9529
  42   1.0000      -0.512446       -13.9444
  43   1.0000      -0.495607       -13.4862
  44   1.0000      -0.444062       -12.0835
  45   1.0000      -0.443968       -12.0810
  46   1.0000      -0.423665       -11.5285
  47   1.0000      -0.404516       -11.0074
  48   1.0000      -0.404504       -11.0071
  49   1.0000      -0.399223       -10.8634
  50   1.0000      -0.395555       -10.7636
  51   1.0000      -0.381099       -10.3702
  52   1.0000      -0.380970       -10.3667
  53   1.0000      -0.357246        -9.7212
  54   1.0000      -0.356461        -9.6998
  55   1.0000      -0.356315        -9.6958
  56   1.0000      -0.341603        -9.2955
  57   1.0000      -0.310370        -8.4456
  58   1.0000      -0.307460        -8.3664
  59   1.0000      -0.307356        -8.3636
  60   1.0000      -0.297549        -8.0967
  61   1.0000      -0.297494        -8.0952
  62   1.0000      -0.280708        -7.6385
  63   1.0000      -0.277404        -7.5485
  64   1.0000      -0.277319        -7.5462
  65   1.0000      -0.273966        -7.4550
  66   1.0000      -0.273935        -7.4542
  67   1.0000      -0.240937        -6.5562
  68   1.0000      -0.240887        -6.5549
  69   1.0000      -0.236291        -6.4298
  70   1.0000      -0.228891        -6.2284
  71   1.0000      -0.225379        -6.1329
  72   1.0000      -0.224813        -6.1175
  73   1.0000      -0.224718        -6.1149
  74   1.0000      -0.212140        -5.7726
  75   1.0000      -0.212014        -5.7692
  76   1.0000      -0.209910        -5.7119
  77   1.0000      -0.195783        -5.3275
  78   1.0000      -0.187683        -5.1071
  79   1.0000      -0.187659        -5.1065
  80   1.0000      -0.178329        -4.8526
  81   1.0000      -0.178314        -4.8522
  82   1.0000      -0.171090        -4.6556
  83   1.0000      -0.166022        -4.5177
  84   1.0000      -0.165988        -4.5168
  85   1.0000      -0.159839        -4.3494
  86   1.0000      -0.156077        -4.2471
  87   1.0000      -0.154832        -4.2132
  88   1.0000      -0.154744        -4.2108
  89   1.0000      -0.144848        -3.9415
  90   1.0000      -0.144737        -3.9385
  91   1.0000      -0.132025        -3.5926
  92   1.0000      -0.117125        -3.1871
  93   1.0000      -0.117037        -3.1847
  94   1.0000      -0.093218        -2.5366
  95   1.0000      -0.093172        -2.5353
  96   1.0000      -0.090780        -2.4702
  97   1.0000      -0.060875        -1.6565
  98   1.0000      -0.058565        -1.5936
  99   1.0000      -0.056433        -1.5356
 100   1.0000      -0.056176        -1.5286
 101   1.0000       0.023441         0.6379
 102   0.0000       0.083045         2.2598
 103   0.0000       0.083869         2.2822
 104   0.0000       0.097765         2.6603
 105   0.0000       0.117911         3.2085
 106   0.0000       0.119171         3.2428

MULLIKEN ATOMIC CHARGES AND SPIN POPULATIONS
--------------------------------------------
   0 C :    0.888545    0.347287
   1 C :   -0.318514    0.003329
   2 C :   -0.384717   -0.029701
   3 C :   -0.357254   -0.030170
   4 C :   -0.366891   -0.032821
   5 C :   -0.342334   -0.014699
   6 C :   -0.335762   -0.014931
   7 C :   -0.363891   -0.011475
   8 C :   -0.355770   -0.011554
   9 C :   -0.337053   -0.015283
  10 C :   -0.336730   -0.015283
  11 C :   -0.162600    0.009385
  12 C :   -0.173013    0.009378
  13 C :   -0.168214    0.009625
  14 C :   -0.333816    0.035057
  15 C :   -0.338548    0.039989
  16 C :   -0.356791    0.047321
  17 C :   -0.302431    0.098448
  18 C :   -0.328965    0.106478
  19 C :   -0.292841    0.093579
  20 C :   -0.298553    0.098201
  21 C :   -0.316011    0.103666
  22 C :   -0.330706    0.110055
  23 C :    0.898117    0.356986
  24 C :    0.922529    0.327103
  25 C :   -0.360719    0.004793
  26 C :   -0.341980    0.005920
  27 N :    0.392786   -0.017244
  28 H :    0.150118    0.000719
  29 H :    0.073408   -0.000619
  30 H :    0.160436   -0.001402
  31 H :    0.078198   -0.001901
  32 H :    0.068717   -0.001756
  33 H :    0.154256   -0.001237
  34 H :    0.164205   -0.001219
  35 H :    0.070359   -0.001327
  36 H :    0.147091   -0.001061
  37 H :    0.075243   -0.000867
  38 H :    0.069281   -0.000409
  39 H :    0.153360   -0.000947
  40 H :    0.080001   -0.000860
  41 H :    0.160396   -0.001210
  42 H :    0.151220   -0.001229
  43 H :    0.074530   -0.000561
  44 H :    0.068131   -0.000595
  45 H :    0.149823   -0.000648
  46 H :    0.143792   -0.000613
  47 H :    0.070485   -0.000597
  48 H :    0.084129    0.000249
  49 H :    0.090206    0.000255
  50 H :    0.088962    0.000228
  51 H :    0.056725    0.043305
  52 H :    0.055512    0.041918
  53 H :    0.053307    0.042482
  54 H :    0.053647    0.046580
  55 H :    0.062011    0.045219
  56 H :    0.051727    0.046494
  57 H :    0.057482    0.045804
  58 H :    0.059004    0.046331
  59 H :    0.057757    0.046207
  60 H :    0.081650   -0.000621
  61 H :    0.159445    0.000617
  62 H :    0.151751    0.000499
  63 H :    0.075762   -0.000666
Sum of atomic charges         :   -1.0000000

LOEWDIN ATOMIC CHARGES AND SPIN POPULATIONS
-------------------------------------------
   0 C :   -0.104698    0.458204
   1 C :   -0.015088    0.010458
   2 C :   -0.022661    0.009027
   3 C :   -0.020827    0.009097
   4 C :   -0.021512    0.008664
   5 C :   -0.011578    0.009911
   6 C :   -0.009753    0.009939
   7 C :   -0.013088    0.010009
   8 C :   -0.010565    0.010090
   9 C :   -0.010175    0.010029
  10 C :   -0.010338    0.010105
  11 C :   -0.071076    0.001305
  12 C :   -0.072420    0.001251
  13 C :   -0.071895    0.001262
  14 C :   -0.108436    0.026049
  15 C :   -0.107745    0.026101
  16 C :   -0.108759    0.027089
  17 C :   -0.105220    0.037037
  18 C :   -0.106006    0.036986
  19 C :   -0.104292    0.036356
  20 C :   -0.105064    0.036609
  21 C :   -0.106546    0.037754
  22 C :   -0.106705    0.038158
  23 C :   -0.104237    0.459736
  24 C :   -0.103856    0.454295
  25 C :   -0.017547    0.010675
  26 C :   -0.016380    0.010898
  27 N :   -0.011153    0.007029
  28 H :   -0.011034    0.000554
  29 H :    0.025113   -0.000343
  30 H :   -0.009239    0.000442
  31 H :    0.024832   -0.000297
  32 H :    0.024237   -0.000296
  33 H :   -0.009202    0.000437
  34 H :   -0.009661    0.000450
  35 H :    0.024308   -0.000281
  36 H :   -0.013858    0.000516
  37 H :    0.029790    0.000232
  38 H :    0.028767    0.000251
  39 H :   -0.016446    0.000527
  40 H :    0.029812    0.000227
  41 H :   -0.015482    0.000528
  42 H :   -0.014439    0.000521
  43 H :    0.029328    0.000240
  44 H :    0.028617    0.000237
  45 H :   -0.015854    0.000518
  46 H :   -0.014239    0.000519
  47 H :    0.029126    0.000255
  48 H :    0.033294    0.000185
  49 H :    0.033818    0.000180
  50 H :    0.033555    0.000171
  51 H :    0.043819    0.019629
  52 H :    0.044030    0.019387
  53 H :    0.043738    0.019308
  54 H :    0.044992    0.022014
  55 H :    0.045690    0.021687
  56 H :    0.044838    0.021940
  57 H :    0.045457    0.021908
  58 H :    0.045270    0.021999
  59 H :    0.045263    0.021863
  60 H :    0.025732   -0.000357
  61 H :   -0.010398    0.000539
  62 H :   -0.011085    0.000544
  63 H :    0.025130   -0.000355

  Mayer bond orders larger than 0.100000
B(  0-C , 15-C ) :   1.0688 B(  0-C , 20-C ) :   1.0677 B(  0-C , 21-C ) :   1.0578
B(  0-C , 23-C ) :   0.1941 B(  0-C , 24-C ) :   0.1920 B(  0-C , 27-N ) :   0.1598
B(  1-C ,  4-C ) :   0.1532 B(  1-C , 15-C ) :   0.9602 B(  1-C , 16-C ) :   0.9578
B(  1-C , 28-H ) :   0.7704 B(  1-C , 29-H ) :   0.9788 B(  2-C , 17-C ) :   0.9799
B(  2-C , 21-C ) :   0.9844 B(  2-C , 25-C ) :   0.1498 B(  2-C , 30-H ) :   0.7748
B(  2-C , 31-H ) :   0.9803 B(  3-C , 19-C ) :   0.9828 B(  3-C , 22-C ) :   0.9775
B(  3-C , 26-C ) :   0.1433 B(  3-C , 32-H ) :   0.9808 B(  3-C , 33-H ) :   0.7780
B(  4-C , 18-C ) :   0.9775 B(  4-C , 20-C ) :   0.9840 B(  4-C , 34-H ) :   0.7691
B(  4-C , 35-H ) :   0.9730 B(  5-C ,  7-C ) :   0.1512 B(  5-C , 13-C ) :   0.9600
B(  5-C , 17-C ) :   0.9627 B(  5-C , 36-H ) :   0.7641 B(  5-C , 37-H ) :   0.9741
B(  6-C , 10-C ) :   0.1437 B(  6-C , 11-C ) :   0.9495 B(  6-C , 18-C ) :   0.9699
B(  6-C , 38-H ) :   0.9744 B(  6-C , 39-H ) :   0.7709 B(  7-C , 12-C ) :   0.9606
B(  7-C , 19-C ) :   0.9653 B(  7-C , 40-H ) :   0.9735 B(  7-C , 41-H ) :   0.7642
B(  8-C ,  9-C ) :   0.1466 B(  8-C , 11-C ) :   0.9529 B(  8-C , 20-C ) :   0.9661
B(  8-C , 42-H ) :   0.7679 B(  8-C , 43-H ) :   0.9794 B(  9-C , 13-C ) :   0.9491
B(  9-C , 21-C ) :   0.9645 B(  9-C , 44-H ) :   0.9770 B(  9-C , 45-H ) :   0.7678
B( 10-C , 12-C ) :   0.9478 B( 10-C , 22-C ) :   0.9668 B( 10-C , 46-H ) :   0.7703
B( 10-C , 47-H ) :   0.9754 B( 11-C , 12-C ) :   0.1090 B( 11-C , 13-C ) :   0.1088
B( 11-C , 27-N ) :   1.0931 B( 11-C , 48-H ) :   1.0176 B( 12-C , 13-C ) :   0.1067
B( 12-C , 27-N ) :   1.1110 B( 12-C , 49-H ) :   1.0111 B( 13-C , 27-N ) :   1.1027
B( 13-C , 50-H ) :   1.0107 B( 14-C , 17-C ) :   0.2155 B( 14-C , 19-C ) :   0.2146
B( 14-C , 23-C ) :   1.0817 B( 14-C , 25-C ) :   0.9629 B( 14-C , 26-C ) :   0.9617
B( 14-C , 51-H ) :   1.0047 B( 15-C , 20-C ) :   0.2157 B( 15-C , 21-C ) :   0.2208
B( 15-C , 25-C ) :   0.9647 B( 15-C , 52-H ) :   1.0161 B( 16-C , 18-C ) :   0.2307
B( 16-C , 22-C ) :   0.2300 B( 16-C , 24-C ) :   1.0546 B( 16-C , 26-C ) :   0.9595
B( 16-C , 53-H ) :   1.0287 B( 17-C , 19-C ) :   0.2125 B( 17-C , 23-C ) :   1.0704
B( 17-C , 54-H ) :   0.9996 B( 18-C , 22-C ) :   0.2191 B( 18-C , 24-C ) :   1.0505
B( 18-C , 55-H ) :   1.0109 B( 19-C , 23-C ) :   1.0607 B( 19-C , 56-H ) :   0.9986
B( 20-C , 21-C ) :   0.2143 B( 20-C , 57-H ) :   0.9979 B( 21-C , 58-H ) :   1.0072
B( 22-C , 24-C ) :   1.0446 B( 22-C , 59-H ) :   1.0184 B( 23-C , 24-C ) :   0.1989
B( 23-C , 27-N ) :   0.1547 B( 24-C , 27-N ) :   0.1613 B( 25-C , 60-H ) :   0.9808
B( 25-C , 61-H ) :   0.7747 B( 26-C , 62-H ) :   0.7795 B( 26-C , 63-H ) :   0.9851
B( 28-H , 34-H ) :   0.2268 B( 30-H , 61-H ) :   0.2255 B( 33-H , 62-H ) :   0.2241
B( 36-H , 41-H ) :   0.2447 B( 39-H , 46-H ) :   0.2431 B( 42-H , 45-H ) :   0.2451

FINAL SINGLE POINT ENERGY     -1103.167863585031

DIPOLE MOMENT
-------------
                                X             Y             Z
Electronic contribution:      0.00362       0.00752       1.06669
Nuclear contribution   :     -0.00074      -0.00374      -0.32886
                        -----------------------------------------
Total Dipole Moment    :      0.00288       0.00378       0.73783
                        -----------------------------------------
Magnitude (a.u.)       :      0.73784
Magnitude (Debye)      :      1.87545

Rotational constants in cm-1:     0.009246     0.009141     0.009141
Rotational constants in MHz :   277.183097   274.048600   274.045280

                             ****ORCA TERMINATED NORMALLY****
TOTAL RUN TIME: 0 days 0 hours 4 minutes 41 seconds 570 msec
