                         Program Version 4.2.1 -  RELEASE  -
|  1> # Use EPR-II is a special basis set for epr, autoaux creates a large auxiliary basis
|  2> !PBE EPR-II AUTOAUX RIJCOSX
|  3>
|  4> # use original (unoptimized) cluster xyz
|  5> *xyzfile -1 3 nv.xyz
|  6>
|  7> # Parallelization
|  8> %PAL NPROCS 72 END
|  9>
| 10> # ZFS calculation
| 11> %EPRNMR DTENSOR SSANDSO
| 12>     DSS     UNO
| 13>     DSOC    CP
| 14> END
| 15>
| 16>                          ****END OF INPUT****

CARTESIAN COORDINATES (ANGSTROEM)
---------------------------------
  C     -0.050345    1.538785   -2.249811
  C      1.236094    0.768725   -4.258023
  C     -2.560564    1.368771   -2.199697
  C      0.094934   -2.901814   -2.199804
  C      2.465619    1.533204   -2.199700
  C     -2.499808   -0.089037   -0.144983
  C      2.500282    0.074543   -0.144986
  C     -1.185587   -2.202574   -0.145035
  C      1.172791    2.209421   -0.144933
  C     -1.314696    2.128042   -0.144931
  C      1.327017   -2.120374   -0.145037
  C      1.207479    0.750814    0.395617
  C      0.046494   -1.421129    0.395566
  C     -1.253971    0.670286    0.395618
  C     -1.239173   -0.770435   -3.737621
  C     -0.047720    1.458505   -3.737569
  C      1.286873   -0.687795   -3.737623
  C     -2.499007   -0.088266   -1.693673
  C      2.499429    0.075259   -1.693676
  C     -1.184577   -2.202140   -1.693726
  C      1.173021    2.208396   -1.693623
  C     -1.314861    2.127005   -1.693621
  C      1.325977   -2.120006   -1.693727
  C     -1.307412   -0.812906   -2.249865
  C      1.357746   -0.725714   -2.249867
  C     -1.283704    0.686289   -4.258021
  C      0.047588   -1.454702   -4.258075
  N      0.000000    0.000000    0.000000
  H      2.094727    1.302624   -3.907906
  H      1.230004    0.764966   -5.328003
  H     -2.576048    1.377073   -3.269544
  H     -3.447109    1.842655   -1.833101
  H      0.127725   -3.904116   -1.826663
  H      0.095735   -2.926344   -3.269519
  H      2.480524    1.542500   -3.269548
  H      3.319294    2.064020   -1.833106
  H     -2.478126   -1.099054    0.207581
  H     -3.384735    0.401565    0.203028
  H      3.354654    0.613493    0.207839
  H      2.535787   -0.936746    0.202756
  H     -1.146019   -3.211970    0.207753
  H     -2.079133   -1.727690    0.202744
  H      0.287258    2.695641    0.207668
  H      2.040136    2.730476    0.203076
  H     -2.208633    2.598461    0.207895
  H     -0.456653    2.664421    0.202848
  H      2.190870   -1.596602    0.207562
  H      1.344600   -3.132057    0.202936
  H      1.218090    0.757384    1.465539
  H      0.046904   -1.433641    1.465488
  H     -1.264987    0.676149    1.465541
  H     -2.092564   -1.301074   -4.105093
  H     -0.080580    2.462896   -4.105005
  H      2.173122   -1.161521   -4.105096
  H     -3.362724   -0.616625   -2.039696
  H      3.395834   -0.395516   -2.039701
  H     -2.040490   -2.743048   -2.039749
  H      1.147299    3.220589   -2.039611
  H     -1.355354    3.138714   -2.039609
  H      2.215415   -2.603815   -2.039752
  H     -1.277586    0.683044   -5.328007
  H     -2.175340    1.162894   -3.907684
  H      0.080650   -2.465262   -3.907994
  H      0.047352   -1.447511   -5.328055

 Total Charge           Charge          ....   -1
 Multiplicity           Mult            ....    3
 Number of Electrons    NEL             ....  206
 Basis Dimension        Dim             ....  728

ORBITAL ENERGIES
----------------
                 SPIN UP ORBITALS
  NO   OCC          E(Eh)            E(eV)
   0   1.0000     -13.855758      -377.0343
   1   1.0000      -9.801481      -266.7118
   2   1.0000      -9.801126      -266.7022
   3   1.0000      -9.801081      -266.7010
   4   1.0000      -9.762821      -265.6599
   5   1.0000      -9.762772      -265.6585
   6   1.0000      -9.762763      -265.6583
   7   1.0000      -9.762630      -265.6547
   8   1.0000      -9.762558      -265.6527
   9   1.0000      -9.762502      -265.6512
  10   1.0000      -9.755611      -265.4637
  11   1.0000      -9.755530      -265.4615
  12   1.0000      -9.755445      -265.4591
  13   1.0000      -9.749281      -265.2914
  14   1.0000      -9.749076      -265.2858
  15   1.0000      -9.748603      -265.2730
  16   1.0000      -9.748511      -265.2705
  17   1.0000      -9.748461      -265.2691
  18   1.0000      -9.748053      -265.2580
  19   1.0000      -9.739691      -265.0305
  20   1.0000      -9.739582      -265.0275
  21   1.0000      -9.739404      -265.0227
  22   1.0000      -9.735635      -264.9201
  23   1.0000      -9.735526      -264.9171
  24   1.0000      -9.735243      -264.9094
  25   1.0000      -9.734669      -264.8938
  26   1.0000      -9.734238      -264.8821
  27   1.0000      -9.734134      -264.8793
  28   1.0000      -0.729713       -19.8565
  29   1.0000      -0.667405       -18.1610
  30   1.0000      -0.652347       -17.7513
  31   1.0000      -0.652246       -17.7485
  32   1.0000      -0.609354       -16.5814
  33   1.0000      -0.598266       -16.2796
  34   1.0000      -0.597961       -16.2713
  35   1.0000      -0.582454       -15.8494
  36   1.0000      -0.582301       -15.8452
  37   1.0000      -0.545780       -14.8514
  38   1.0000      -0.521586       -14.1931
  39   1.0000      -0.521503       -14.1908
  40   1.0000      -0.518952       -14.1214
  41   1.0000      -0.515950       -14.0397
  42   1.0000      -0.515706       -14.0331
  43   1.0000      -0.501957       -13.6589
  44   1.0000      -0.444694       -12.1007
  45   1.0000      -0.444601       -12.0982
  46   1.0000      -0.423895       -11.5348
  47   1.0000      -0.405317       -11.0292
  48   1.0000      -0.405258       -11.0276
  49   1.0000      -0.400250       -10.8913
  50   1.0000      -0.397478       -10.8159
  51   1.0000      -0.384009       -10.4494
  52   1.0000      -0.383983       -10.4487
  53   1.0000      -0.358464        -9.7543
  54   1.0000      -0.357896        -9.7389
  55   1.0000      -0.357888        -9.7386
  56   1.0000      -0.346437        -9.4270
  57   1.0000      -0.312925        -8.5151
  58   1.0000      -0.309003        -8.4084
  59   1.0000      -0.308866        -8.4047
  60   1.0000      -0.301336        -8.1998
  61   1.0000      -0.301206        -8.1962
  62   1.0000      -0.282112        -7.6766
  63   1.0000      -0.279306        -7.6003
  64   1.0000      -0.279160        -7.5963
  65   1.0000      -0.275613        -7.4998
  66   1.0000      -0.275579        -7.4989
  67   1.0000      -0.242658        -6.6031
  68   1.0000      -0.242558        -6.6003
  69   1.0000      -0.238276        -6.4838
  70   1.0000      -0.231009        -6.2861
  71   1.0000      -0.228433        -6.2160
  72   1.0000      -0.226252        -6.1566
  73   1.0000      -0.226235        -6.1562
  74   1.0000      -0.212451        -5.7811
  75   1.0000      -0.212365        -5.7788
  76   1.0000      -0.210095        -5.7170
  77   1.0000      -0.197015        -5.3611
  78   1.0000      -0.190611        -5.1868
  79   1.0000      -0.190588        -5.1862
  80   1.0000      -0.179321        -4.8796
  81   1.0000      -0.179299        -4.8790
  82   1.0000      -0.171371        -4.6633
  83   1.0000      -0.166753        -4.5376
  84   1.0000      -0.166725        -4.5368
  85   1.0000      -0.161161        -4.3854
  86   1.0000      -0.158650        -4.3171
  87   1.0000      -0.156241        -4.2515
  88   1.0000      -0.156182        -4.2499
  89   1.0000      -0.146958        -3.9989
  90   1.0000      -0.146845        -3.9959
  91   1.0000      -0.135096        -3.6761
  92   1.0000      -0.119912        -3.2630
  93   1.0000      -0.119871        -3.2619
  94   1.0000      -0.095623        -2.6020
  95   1.0000      -0.095565        -2.6005
  96   1.0000      -0.092614        -2.5202
  97   1.0000      -0.077024        -2.0959
  98   1.0000      -0.059122        -1.6088
  99   1.0000      -0.056813        -1.5460
 100   1.0000      -0.056557        -1.5390
 101   1.0000       0.002084         0.0567
 102   1.0000       0.047438         1.2909
 103   1.0000       0.047517         1.2930
 104   0.0000       0.096962         2.6385
 105   0.0000       0.113757         3.0955
 106   0.0000       0.116243         3.1631
 107   0.0000       0.117321         3.1925
 108   0.0000       0.124682         3.3928

                 SPIN DOWN ORBITALS
  NO   OCC          E(Eh)            E(eV)
   0   1.0000     -13.855709      -377.0330
   1   1.0000      -9.801436      -266.7106
   2   1.0000      -9.801079      -266.7009
   3   1.0000      -9.801035      -266.6997
   4   1.0000      -9.763050      -265.6661
   5   1.0000      -9.763004      -265.6648
   6   1.0000      -9.762992      -265.6645
   7   1.0000      -9.762862      -265.6610
   8   1.0000      -9.762790      -265.6590
   9   1.0000      -9.762734      -265.6575
  10   1.0000      -9.756011      -265.4746
  11   1.0000      -9.755926      -265.4722
  12   1.0000      -9.755844      -265.4700
  13   1.0000      -9.749175      -265.2886
  14   1.0000      -9.748968      -265.2829
  15   1.0000      -9.748496      -265.2701
  16   1.0000      -9.748405      -265.2676
  17   1.0000      -9.748353      -265.2662
  18   1.0000      -9.747946      -265.2551
  19   1.0000      -9.739534      -265.0262
  20   1.0000      -9.739426      -265.0233
  21   1.0000      -9.739249      -265.0184
  22   1.0000      -9.735440      -264.9148
  23   1.0000      -9.735331      -264.9118
  24   1.0000      -9.735049      -264.9042
  25   1.0000      -9.725978      -264.6573
  26   1.0000      -9.725540      -264.6454
  27   1.0000      -9.725409      -264.6418
  28   1.0000      -0.729093       -19.8396
  29   1.0000      -0.664411       -18.0795
  30   1.0000      -0.650478       -17.7004
  31   1.0000      -0.650375       -17.6976
  32   1.0000      -0.608891       -16.5688
  33   1.0000      -0.597793       -16.2668
  34   1.0000      -0.597484       -16.2584
  35   1.0000      -0.579724       -15.7751
  36   1.0000      -0.579577       -15.7711
  37   1.0000      -0.545173       -14.8349
  38   1.0000      -0.520870       -14.1736
  39   1.0000      -0.520766       -14.1708
  40   1.0000      -0.518276       -14.1030
  41   1.0000      -0.512719       -13.9518
  42   1.0000      -0.512474       -13.9451
  43   1.0000      -0.495601       -13.4860
  44   1.0000      -0.444056       -12.0834
  45   1.0000      -0.443963       -12.0808
  46   1.0000      -0.423682       -11.5290
  47   1.0000      -0.404554       -11.0085
  48   1.0000      -0.404495       -11.0069
  49   1.0000      -0.399164       -10.8618
  50   1.0000      -0.395470       -10.7613
  51   1.0000      -0.381025       -10.3682
  52   1.0000      -0.380997       -10.3674
  53   1.0000      -0.357250        -9.7213
  54   1.0000      -0.356356        -9.6969
  55   1.0000      -0.356331        -9.6963
  56   1.0000      -0.341549        -9.2940
  57   1.0000      -0.310403        -8.4465
  58   1.0000      -0.307487        -8.3672
  59   1.0000      -0.307307        -8.3623
  60   1.0000      -0.297602        -8.0982
  61   1.0000      -0.297434        -8.0936
  62   1.0000      -0.280726        -7.6389
  63   1.0000      -0.277421        -7.5490
  64   1.0000      -0.277263        -7.5447
  65   1.0000      -0.273893        -7.4530
  66   1.0000      -0.273880        -7.4527
  67   1.0000      -0.240913        -6.5556
  68   1.0000      -0.240810        -6.5528
  69   1.0000      -0.236299        -6.4300
  70   1.0000      -0.228804        -6.2261
  71   1.0000      -0.225355        -6.1322
  72   1.0000      -0.224730        -6.1152
  73   1.0000      -0.224710        -6.1147
  74   1.0000      -0.212067        -5.7706
  75   1.0000      -0.211980        -5.7683
  76   1.0000      -0.209852        -5.7104
  77   1.0000      -0.195760        -5.3269
  78   1.0000      -0.187672        -5.1068
  79   1.0000      -0.187638        -5.1059
  80   1.0000      -0.178338        -4.8528
  81   1.0000      -0.178314        -4.8522
  82   1.0000      -0.171015        -4.6535
  83   1.0000      -0.165981        -4.5166
  84   1.0000      -0.165947        -4.5156
  85   1.0000      -0.159858        -4.3500
  86   1.0000      -0.156040        -4.2461
  87   1.0000      -0.154811        -4.2126
  88   1.0000      -0.154748        -4.2109
  89   1.0000      -0.144821        -3.9408
  90   1.0000      -0.144712        -3.9378
  91   1.0000      -0.131999        -3.5919
  92   1.0000      -0.117088        -3.1861
  93   1.0000      -0.117050        -3.1851
  94   1.0000      -0.093245        -2.5373
  95   1.0000      -0.093192        -2.5359
  96   1.0000      -0.090763        -2.4698
  97   1.0000      -0.060823        -1.6551
  98   1.0000      -0.058620        -1.5951
  99   1.0000      -0.056414        -1.5351
 100   1.0000      -0.056159        -1.5282
 101   1.0000       0.023517         0.6399
 102   0.0000       0.083343         2.2679
 103   0.0000       0.083657         2.2764
 104   0.0000       0.097821         2.6618
 105   0.0000       0.117799         3.2055
 106   0.0000       0.119340         3.2474

MULLIKEN ATOMIC CHARGES AND SPIN POPULATIONS
--------------------------------------------
   0 C :    0.885609    0.342232
   1 C :   -0.333803    0.003972
   2 C :   -0.376104   -0.032363
   3 C :   -0.350033   -0.028159
   4 C :   -0.382176   -0.031639
   5 C :   -0.360269   -0.014150
   6 C :   -0.367938   -0.013981
   7 C :   -0.345005   -0.014455
   8 C :   -0.341974   -0.014391
   9 C :   -0.357004   -0.013588
  10 C :   -0.347706   -0.013503
  11 C :   -0.150754    0.009653
  12 C :   -0.176814    0.009335
  13 C :   -0.149053    0.009715
  14 C :   -0.368537    0.041829
  15 C :   -0.333898    0.040223
  16 C :   -0.367069    0.038432
  17 C :   -0.313118    0.100517
  18 C :   -0.303760    0.098186
  19 C :   -0.326177    0.104047
  20 C :   -0.308327    0.104124
  21 C :   -0.307872    0.102774
  22 C :   -0.317933    0.099244
  23 C :    0.935170    0.341902
  24 C :    0.927637    0.350401
  25 C :   -0.324107    0.003624
  26 C :   -0.338810    0.006955
  27 N :    0.382163   -0.017465
  28 H :    0.150820    0.000721
  29 H :    0.077019   -0.000592
  30 H :    0.165639   -0.001299
  31 H :    0.075786   -0.001406
  32 H :    0.066423   -0.002072
  33 H :    0.148514   -0.001382
  34 H :    0.163648   -0.001301
  35 H :    0.077645   -0.001519
  36 H :    0.154236   -0.001322
  37 H :    0.081699   -0.000565
  38 H :    0.083145   -0.000683
  39 H :    0.161199   -0.001455
  40 H :    0.070939   -0.000787
  41 H :    0.151684   -0.000521
  42 H :    0.146173   -0.000664
  43 H :    0.066983   -0.000462
  44 H :    0.069384   -0.000433
  45 H :    0.155617   -0.000911
  46 H :    0.148836   -0.000583
  47 H :    0.073516   -0.000844
  48 H :    0.082675    0.000227
  49 H :    0.093151    0.000284
  50 H :    0.081730    0.000229
  51 H :    0.058415    0.042851
  52 H :    0.051073    0.041825
  53 H :    0.060548    0.043110
  54 H :    0.061600    0.045453
  55 H :    0.059594    0.045753
  56 H :    0.056173    0.046012
  57 H :    0.057267    0.046628
  58 H :    0.057621    0.046289
  59 H :    0.055783    0.046069
  60 H :    0.075169   -0.000603
  61 H :    0.148593    0.000762
  62 H :    0.153442    0.000457
  63 H :    0.075924   -0.000737
Sum of atomic charges         :   -1.0000000

LOEWDIN ATOMIC CHARGES AND SPIN POPULATIONS
-------------------------------------------
   0 C :   -0.104768    0.456754
   1 C :   -0.016045    0.010446
   2 C :   -0.022072    0.008681
   3 C :   -0.020457    0.009414
   4 C :   -0.022180    0.008760
   5 C :   -0.011583    0.009852
   6 C :   -0.012652    0.009792
   7 C :   -0.011745    0.010032
   8 C :   -0.009348    0.010138
   9 C :   -0.010123    0.010098
  10 C :   -0.012103    0.009981
  11 C :   -0.070796    0.001304
  12 C :   -0.072809    0.001216
  13 C :   -0.070586    0.001324
  14 C :   -0.109512    0.026695
  15 C :   -0.106664    0.025902
  16 C :   -0.109683    0.026386
  17 C :   -0.105285    0.036483
  18 C :   -0.105055    0.036374
  19 C :   -0.106078    0.037674
  20 C :   -0.106129    0.037784
  21 C :   -0.105951    0.037428
  22 C :   -0.105399    0.037122
  23 C :   -0.103333    0.457157
  24 C :   -0.103638    0.458724
  25 C :   -0.015718    0.010395
  26 C :   -0.016145    0.011155
  27 N :   -0.011300    0.007037
  28 H :   -0.010869    0.000548
  29 H :    0.025405   -0.000350
  30 H :   -0.009444    0.000449
  31 H :    0.024634   -0.000278
  32 H :    0.023877   -0.000303
  33 H :   -0.009412    0.000429
  34 H :   -0.009421    0.000448
  35 H :    0.024712   -0.000282
  36 H :   -0.014200    0.000520
  37 H :    0.030119    0.000247
  38 H :    0.030004    0.000237
  39 H :   -0.015587    0.000526
  40 H :    0.029075    0.000233
  41 H :   -0.015575    0.000525
  42 H :   -0.014529    0.000516
  43 H :    0.028681    0.000248
  44 H :    0.028537    0.000244
  45 H :   -0.016242    0.000527
  46 H :   -0.013716    0.000519
  47 H :    0.029670    0.000228
  48 H :    0.033122    0.000180
  49 H :    0.033995    0.000174
  50 H :    0.033077    0.000186
  51 H :    0.043987    0.019466
  52 H :    0.043619    0.019290
  53 H :    0.044046    0.019573
  54 H :    0.045714    0.021725
  55 H :    0.045494    0.021815
  56 H :    0.045034    0.021918
  57 H :    0.045012    0.022033
  58 H :    0.045103    0.021986
  59 H :    0.045014    0.021935
  60 H :    0.025275   -0.000347
  61 H :   -0.011030    0.000552
  62 H :   -0.011101    0.000537
  63 H :    0.025073   -0.000365

  Mayer bond orders larger than 0.100000
B(  0-C , 15-C ) :   1.0629 B(  0-C , 20-C ) :   1.0601 B(  0-C , 21-C ) :   1.0619
B(  0-C , 23-C ) :   0.1936 B(  0-C , 24-C ) :   0.1942 B(  0-C , 27-N ) :   0.1600
B(  1-C ,  4-C ) :   0.1507 B(  1-C , 15-C ) :   0.9593 B(  1-C , 16-C ) :   0.9592
B(  1-C , 28-H ) :   0.7737 B(  1-C , 29-H ) :   0.9795 B(  2-C , 17-C ) :   0.9753
B(  2-C , 21-C ) :   0.9839 B(  2-C , 25-C ) :   0.1517 B(  2-C , 30-H ) :   0.7693
B(  2-C , 31-H ) :   0.9739 B(  3-C , 19-C ) :   0.9801 B(  3-C , 22-C ) :   0.9825
B(  3-C , 26-C ) :   0.1362 B(  3-C , 32-H ) :   0.9853 B(  3-C , 33-H ) :   0.7812
B(  4-C , 18-C ) :   0.9750 B(  4-C , 20-C ) :   0.9824 B(  4-C , 34-H ) :   0.7714
B(  4-C , 35-H ) :   0.9763 B(  5-C ,  7-C ) :   0.1505 B(  5-C , 13-C ) :   0.9595
B(  5-C , 17-C ) :   0.9633 B(  5-C , 36-H ) :   0.7655 B(  5-C , 37-H ) :   0.9734
B(  6-C , 10-C ) :   0.1546 B(  6-C , 11-C ) :   0.9615 B(  6-C , 18-C ) :   0.9602
B(  6-C , 38-H ) :   0.9740 B(  6-C , 39-H ) :   0.7649 B(  7-C , 12-C ) :   0.9540
B(  7-C , 19-C ) :   0.9639 B(  7-C , 40-H ) :   0.9741 B(  7-C , 41-H ) :   0.7692
B(  8-C ,  9-C ) :   0.1537 B(  8-C , 11-C ) :   0.9388 B(  8-C , 20-C ) :   0.9652
B(  8-C , 42-H ) :   0.7703 B(  8-C , 43-H ) :   0.9804 B(  9-C , 13-C ) :   0.9395
B(  9-C , 21-C ) :   0.9628 B(  9-C , 44-H ) :   0.9814 B(  9-C , 45-H ) :   0.7723
B( 10-C , 12-C ) :   0.9572 B( 10-C , 22-C ) :   0.9632 B( 10-C , 46-H ) :   0.7665
B( 10-C , 47-H ) :   0.9733 B( 11-C , 12-C ) :   0.1058 B( 11-C , 13-C ) :   0.1073
B( 11-C , 27-N ) :   1.1010 B( 11-C , 48-H ) :   1.0152 B( 12-C , 13-C ) :   0.1064
B( 12-C , 27-N ) :   1.1164 B( 12-C , 49-H ) :   1.0094 B( 13-C , 27-N ) :   1.0978
B( 13-C , 50-H ) :   1.0170 B( 14-C , 17-C ) :   0.2262 B( 14-C , 19-C ) :   0.2286
B( 14-C , 23-C ) :   1.0628 B( 14-C , 25-C ) :   0.9572 B( 14-C , 26-C ) :   0.9623
B( 14-C , 51-H ) :   1.0179 B( 15-C , 20-C ) :   0.2228 B( 15-C , 21-C ) :   0.2226
B( 15-C , 25-C ) :   0.9606 B( 15-C , 52-H ) :   1.0206 B( 16-C , 18-C ) :   0.2213
B( 16-C , 22-C ) :   0.2245 B( 16-C , 24-C ) :   1.0680 B( 16-C , 26-C ) :   0.9658
B( 16-C , 53-H ) :   1.0110 B( 17-C , 19-C ) :   0.2129 B( 17-C , 23-C ) :   1.0588
B( 17-C , 54-H ) :   1.0025 B( 18-C , 22-C ) :   0.2119 B( 18-C , 24-C ) :   1.0648
B( 18-C , 55-H ) :   0.9993 B( 19-C , 23-C ) :   1.0399 B( 19-C , 56-H ) :   1.0152
B( 20-C , 21-C ) :   0.2181 B( 20-C , 57-H ) :   1.0091 B( 21-C , 58-H ) :   1.0065
B( 22-C , 24-C ) :   1.0469 B( 22-C , 59-H ) :   1.0084 B( 23-C , 24-C ) :   0.1981
B( 23-C , 27-N ) :   0.1577 B( 24-C , 27-N ) :   0.1571 B( 25-C , 60-H ) :   0.9784
B( 25-C , 61-H ) :   0.7720 B( 26-C , 62-H ) :   0.7812 B( 26-C , 63-H ) :   0.9876
B( 28-H , 34-H ) :   0.2267 B( 30-H , 61-H ) :   0.2270 B( 33-H , 62-H ) :   0.2261
B( 36-H , 41-H ) :   0.2422 B( 39-H , 46-H ) :   0.2418 B( 42-H , 45-H ) :   0.2415

FINAL SINGLE POINT ENERGY     -1103.168040174455

DIPOLE MOMENT
-------------
                                X             Y             Z
Electronic contribution:      0.00001       0.01418       1.06747
Nuclear contribution   :      0.00000      -0.00381      -0.32886
                        -----------------------------------------
Total Dipole Moment    :      0.00001       0.01037       0.73861
                        -----------------------------------------
Magnitude (a.u.)       :      0.73868
Magnitude (Debye)      :      1.87758

Rotational constants in cm-1:     0.009246     0.009141     0.009141
Rotational constants in MHz :   277.183097   274.048600   274.045280

                             ****ORCA TERMINATED NORMALLY****
TOTAL RUN TIME: 0 days 0 hours 4 minutes 41 seconds 60 msec
