                         Program Version 4.2.1 -  RELEASE  -
|  1> # Use EPR-II is a special basis set for epr, autoaux creates a large auxiliary basis
|  2> !PBE EPR-II AUTOAUX RIJCOSX
|  3>
|  4> # use original (unoptimized) cluster xyz
|  5> *xyzfile -1 3 nv.xyz
|  6>
|  7> # Parallelization
|  8> %PAL NPROCS 72 END
|  9>
| 10> # ZFS calculation
| 11> %EPRNMR DTENSOR SSANDSO
| 12>     DSS     UNO
| 13>     DSOC    CP
| 14> END
| 15>
| 16>                          ****END OF INPUT****

CARTESIAN COORDINATES (ANGSTROEM)
---------------------------------
  C      1.380820   -0.680978   -2.249811
  C      0.095264   -1.452512   -4.258023
  C      2.414190    1.612982   -2.199697
  C     -2.603923    1.284182   -2.199804
  C      0.189881   -2.897229   -2.199700
  C      1.099878    2.246606   -0.144983
  C     -1.112884   -2.240191   -0.144986
  C     -1.383615    2.083881   -0.145035
  C      1.395686   -2.075823   -0.144933
  C      2.496509    0.156306   -0.144931
  C     -2.495554   -0.170787   -0.145037
  C      0.092957   -1.418833    0.395617
  C     -1.275241    0.628911    0.395566
  C      1.182258    0.789933    0.395618
  C     -0.095321    1.456033   -3.737621
  C      1.308781   -0.645449   -3.737569
  C     -1.213209   -0.810696   -3.737623
  C      1.100180    2.245536   -1.693673
  C     -1.111850   -2.239777   -1.693676
  C     -1.383708    2.082785   -1.693726
  C      1.394673   -2.075543   -1.693623
  C      2.495672    0.156941   -1.693621
  C     -2.494740   -0.170043   -1.693727
  C     -0.100609    1.536236   -2.249865
  C     -1.280060   -0.855325   -2.249867
  C      1.210387    0.808612   -4.258021
  C     -1.305366    0.643773   -4.258075
  N      0.000000    0.000000    0.000000
  H      0.161364   -2.461437   -3.907906
  H      0.094820   -1.445369   -5.328003
  H      2.428810    1.622723   -3.269544
  H      3.250032    2.171457   -1.833101
  H     -3.503333    1.727744   -1.826663
  H     -2.625934    1.295038   -3.269519
  H      0.191053   -2.914757   -3.269548
  H      0.255598   -3.900328   -1.833106
  H      0.198901    2.703603    0.207581
  H      1.949702    2.795773    0.203028
  H     -1.040320   -3.247739    0.207839
  H     -2.021498   -1.794786    0.202756
  H     -2.292475    2.524811    0.207753
  H     -0.543590    2.648059    0.202744
  H      2.241931   -1.524055    0.207668
  H      1.446352   -3.086377    0.203076
  H      3.332781    0.722934    0.207895
  H      2.565074   -0.853267    0.202848
  H     -2.440846   -1.179542    0.207562
  H     -3.396067    0.290610    0.202936
  H      0.093749   -1.431288    1.465539
  H     -1.286469    0.634448    1.465488
  H      1.192621    0.796884    1.465541
  H     -0.161017    2.458799   -4.105093
  H      2.210065   -1.089936   -4.105005
  H     -2.048773   -1.368986   -4.105096
  H      1.041363    3.256333   -2.039696
  H     -1.949599   -2.808413   -2.039701
  H     -1.457272    3.092616   -2.039749
  H      2.299473   -2.530003   -2.039611
  H      3.407008   -0.284264   -2.039609
  H     -3.340699   -0.726391   -2.039752
  H      1.204640    0.804745   -5.328007
  H      2.051029    1.370294   -3.907684
  H     -2.212185    1.090990   -3.907994
  H     -1.298912    0.640592   -5.328055

 Total Charge           Charge          ....   -1
 Multiplicity           Mult            ....    3
 Number of Electrons    NEL             ....  206
 Basis Dimension        Dim             ....  728

ORBITAL ENERGIES
----------------
                 SPIN UP ORBITALS
  NO   OCC          E(Eh)            E(eV)
   0   1.0000     -13.855726      -377.0335
   1   1.0000      -9.801442      -266.7108
   2   1.0000      -9.801160      -266.7031
   3   1.0000      -9.801062      -266.7004
   4   1.0000      -9.762835      -265.6602
   5   1.0000      -9.762775      -265.6586
   6   1.0000      -9.762754      -265.6580
   7   1.0000      -9.762704      -265.6567
   8   1.0000      -9.762517      -265.6516
   9   1.0000      -9.762479      -265.6506
  10   1.0000      -9.755732      -265.4670
  11   1.0000      -9.755500      -265.4606
  12   1.0000      -9.755386      -265.4575
  13   1.0000      -9.749241      -265.2903
  14   1.0000      -9.749072      -265.2857
  15   1.0000      -9.748593      -265.2727
  16   1.0000      -9.748438      -265.2685
  17   1.0000      -9.748408      -265.2677
  18   1.0000      -9.748196      -265.2619
  19   1.0000      -9.740071      -265.0408
  20   1.0000      -9.739537      -265.0263
  21   1.0000      -9.739081      -265.0139
  22   1.0000      -9.735676      -264.9212
  23   1.0000      -9.735374      -264.9130
  24   1.0000      -9.735366      -264.9128
  25   1.0000      -9.734621      -264.8925
  26   1.0000      -9.734320      -264.8843
  27   1.0000      -9.734113      -264.8787
  28   1.0000      -0.729693       -19.8559
  29   1.0000      -0.667410       -18.1612
  30   1.0000      -0.652354       -17.7515
  31   1.0000      -0.652235       -17.7482
  32   1.0000      -0.609349       -16.5812
  33   1.0000      -0.598155       -16.2766
  34   1.0000      -0.598065       -16.2742
  35   1.0000      -0.582443       -15.8491
  36   1.0000      -0.582326       -15.8459
  37   1.0000      -0.545776       -14.8513
  38   1.0000      -0.521594       -14.1933
  39   1.0000      -0.521501       -14.1908
  40   1.0000      -0.518955       -14.1215
  41   1.0000      -0.515926       -14.0391
  42   1.0000      -0.515732       -14.0338
  43   1.0000      -0.501955       -13.6589
  44   1.0000      -0.444677       -12.1003
  45   1.0000      -0.444615       -12.0986
  46   1.0000      -0.423888       -11.5346
  47   1.0000      -0.405295       -11.0286
  48   1.0000      -0.405262       -11.0277
  49   1.0000      -0.400255       -10.8915
  50   1.0000      -0.397485       -10.8161
  51   1.0000      -0.384054       -10.4506
  52   1.0000      -0.383934       -10.4474
  53   1.0000      -0.358433        -9.7535
  54   1.0000      -0.357955        -9.7404
  55   1.0000      -0.357866        -9.7380
  56   1.0000      -0.346435        -9.4270
  57   1.0000      -0.312914        -8.5148
  58   1.0000      -0.308951        -8.4070
  59   1.0000      -0.308909        -8.4058
  60   1.0000      -0.301334        -8.1997
  61   1.0000      -0.301195        -8.1959
  62   1.0000      -0.282097        -7.6762
  63   1.0000      -0.279251        -7.5988
  64   1.0000      -0.279215        -7.5978
  65   1.0000      -0.275618        -7.4999
  66   1.0000      -0.275573        -7.4987
  67   1.0000      -0.242659        -6.6031
  68   1.0000      -0.242565        -6.6005
  69   1.0000      -0.238260        -6.4834
  70   1.0000      -0.231021        -6.2864
  71   1.0000      -0.228427        -6.2158
  72   1.0000      -0.226281        -6.1574
  73   1.0000      -0.226211        -6.1555
  74   1.0000      -0.212422        -5.7803
  75   1.0000      -0.212410        -5.7800
  76   1.0000      -0.210104        -5.7172
  77   1.0000      -0.197012        -5.3610
  78   1.0000      -0.190610        -5.1868
  79   1.0000      -0.190586        -5.1861
  80   1.0000      -0.179324        -4.8797
  81   1.0000      -0.179283        -4.8785
  82   1.0000      -0.171379        -4.6635
  83   1.0000      -0.166775        -4.5382
  84   1.0000      -0.166711        -4.5364
  85   1.0000      -0.161155        -4.3852
  86   1.0000      -0.158650        -4.3171
  87   1.0000      -0.156253        -4.2519
  88   1.0000      -0.156174        -4.2497
  89   1.0000      -0.146908        -3.9976
  90   1.0000      -0.146900        -3.9974
  91   1.0000      -0.135096        -3.6761
  92   1.0000      -0.119912        -3.2630
  93   1.0000      -0.119869        -3.2618
  94   1.0000      -0.095625        -2.6021
  95   1.0000      -0.095551        -2.6001
  96   1.0000      -0.092613        -2.5201
  97   1.0000      -0.077023        -2.0959
  98   1.0000      -0.059109        -1.6085
  99   1.0000      -0.056876        -1.5477
 100   1.0000      -0.056500        -1.5374
 101   1.0000       0.002084         0.0567
 102   1.0000       0.047393         1.2896
 103   1.0000       0.047548         1.2939
 104   0.0000       0.096971         2.6387
 105   0.0000       0.113801         3.0967
 106   0.0000       0.116304         3.1648
 107   0.0000       0.117293         3.1917
 108   0.0000       0.124684         3.3928

                 SPIN DOWN ORBITALS
  NO   OCC          E(Eh)            E(eV)
   0   1.0000     -13.855677      -377.0321
   1   1.0000      -9.801397      -266.7096
   2   1.0000      -9.801113      -266.7018
   3   1.0000      -9.801015      -266.6992
   4   1.0000      -9.763064      -265.6665
   5   1.0000      -9.763004      -265.6648
   6   1.0000      -9.762986      -265.6643
   7   1.0000      -9.762936      -265.6630
   8   1.0000      -9.762750      -265.6579
   9   1.0000      -9.762710      -265.6568
  10   1.0000      -9.756132      -265.4778
  11   1.0000      -9.755896      -265.4714
  12   1.0000      -9.755785      -265.4684
  13   1.0000      -9.749135      -265.2875
  14   1.0000      -9.748964      -265.2828
  15   1.0000      -9.748486      -265.2698
  16   1.0000      -9.748331      -265.2656
  17   1.0000      -9.748302      -265.2648
  18   1.0000      -9.748088      -265.2590
  19   1.0000      -9.739915      -265.0366
  20   1.0000      -9.739382      -265.0220
  21   1.0000      -9.738925      -265.0096
  22   1.0000      -9.735481      -264.9159
  23   1.0000      -9.735180      -264.9077
  24   1.0000      -9.735171      -264.9075
  25   1.0000      -9.725928      -264.6560
  26   1.0000      -9.725634      -264.6480
  27   1.0000      -9.725379      -264.6410
  28   1.0000      -0.729072       -19.8391
  29   1.0000      -0.664416       -18.0797
  30   1.0000      -0.650485       -17.7006
  31   1.0000      -0.650364       -17.6973
  32   1.0000      -0.608886       -16.5686
  33   1.0000      -0.597683       -16.2638
  34   1.0000      -0.597588       -16.2612
  35   1.0000      -0.579719       -15.7749
  36   1.0000      -0.579597       -15.7716
  37   1.0000      -0.545168       -14.8348
  38   1.0000      -0.520871       -14.1736
  39   1.0000      -0.520772       -14.1709
  40   1.0000      -0.518279       -14.1031
  41   1.0000      -0.512699       -13.9513
  42   1.0000      -0.512495       -13.9457
  43   1.0000      -0.495598       -13.4859
  44   1.0000      -0.444037       -12.0829
  45   1.0000      -0.443979       -12.0813
  46   1.0000      -0.423674       -11.5288
  47   1.0000      -0.404531       -11.0078
  48   1.0000      -0.404500       -11.0070
  49   1.0000      -0.399170       -10.8620
  50   1.0000      -0.395477       -10.7615
  51   1.0000      -0.381072       -10.3695
  52   1.0000      -0.380944       -10.3660
  53   1.0000      -0.357228        -9.7207
  54   1.0000      -0.356406        -9.6983
  55   1.0000      -0.356309        -9.6957
  56   1.0000      -0.341548        -9.2940
  57   1.0000      -0.310390        -8.4461
  58   1.0000      -0.307434        -8.3657
  59   1.0000      -0.307352        -8.3635
  60   1.0000      -0.297589        -8.0978
  61   1.0000      -0.297434        -8.0936
  62   1.0000      -0.280711        -7.6385
  63   1.0000      -0.277377        -7.5478
  64   1.0000      -0.277308        -7.5459
  65   1.0000      -0.273893        -7.4530
  66   1.0000      -0.273880        -7.4527
  67   1.0000      -0.240913        -6.5556
  68   1.0000      -0.240817        -6.5530
  69   1.0000      -0.236284        -6.4296
  70   1.0000      -0.228815        -6.2264
  71   1.0000      -0.225347        -6.1320
  72   1.0000      -0.224755        -6.1159
  73   1.0000      -0.224691        -6.1141
  74   1.0000      -0.212036        -5.7698
  75   1.0000      -0.212028        -5.7696
  76   1.0000      -0.209861        -5.7106
  77   1.0000      -0.195756        -5.3268
  78   1.0000      -0.187667        -5.1067
  79   1.0000      -0.187639        -5.1059
  80   1.0000      -0.178342        -4.8529
  81   1.0000      -0.178298        -4.8517
  82   1.0000      -0.171022        -4.6537
  83   1.0000      -0.166001        -4.5171
  84   1.0000      -0.165935        -4.5153
  85   1.0000      -0.159853        -4.3498
  86   1.0000      -0.156042        -4.2461
  87   1.0000      -0.154820        -4.2129
  88   1.0000      -0.154742        -4.2107
  89   1.0000      -0.144769        -3.9394
  90   1.0000      -0.144767        -3.9393
  91   1.0000      -0.131999        -3.5919
  92   1.0000      -0.117092        -3.1862
  93   1.0000      -0.117045        -3.1850
  94   1.0000      -0.093249        -2.5374
  95   1.0000      -0.093176        -2.5354
  96   1.0000      -0.090763        -2.4698
  97   1.0000      -0.060822        -1.6550
  98   1.0000      -0.058608        -1.5948
  99   1.0000      -0.056478        -1.5368
 100   1.0000      -0.056101        -1.5266
 101   1.0000       0.023522         0.6401
 102   0.0000       0.083279         2.2661
 103   0.0000       0.083720         2.2781
 104   0.0000       0.097826         2.6620
 105   0.0000       0.117865         3.2073
 106   0.0000       0.119311         3.2466

MULLIKEN ATOMIC CHARGES AND SPIN POPULATIONS
--------------------------------------------
   0 C :    0.920767    0.353943
   1 C :   -0.339780    0.006822
   2 C :   -0.384099   -0.031180
   3 C :   -0.371548   -0.032652
   4 C :   -0.352691   -0.028499
   5 C :   -0.336312   -0.014782
   6 C :   -0.341878   -0.014852
   7 C :   -0.360427   -0.013129
   8 C :   -0.351634   -0.012855
   9 C :   -0.364610   -0.013986
  10 C :   -0.354760   -0.014339
  11 C :   -0.177220    0.009354
  12 C :   -0.151429    0.009720
  13 C :   -0.154509    0.009623
  14 C :   -0.335532    0.040334
  15 C :   -0.361510    0.036866
  16 C :   -0.365148    0.043460
  17 C :   -0.309696    0.104445
  18 C :   -0.328864    0.106050
  19 C :   -0.307225    0.101833
  20 C :   -0.312601    0.096934
  21 C :   -0.300842    0.097494
  22 C :   -0.317964    0.101953
  23 C :    0.886381    0.342923
  24 C :    0.934690    0.337824
  25 C :   -0.340060    0.004156
  26 C :   -0.321756    0.003511
  27 N :    0.386071   -0.017449
  28 H :    0.151682    0.000471
  29 H :    0.075968   -0.000720
  30 H :    0.162460   -0.001307
  31 H :    0.078046   -0.001602
  32 H :    0.074683   -0.001376
  33 H :    0.163925   -0.001278
  34 H :    0.152192   -0.001358
  35 H :    0.066596   -0.002005
  36 H :    0.144554   -0.000608
  37 H :    0.066291   -0.000485
  38 H :    0.070103   -0.000741
  39 H :    0.150622   -0.000525
  40 H :    0.070966   -0.000440
  41 H :    0.156275   -0.001005
  42 H :    0.150973   -0.000710
  43 H :    0.075376   -0.000861
  44 H :    0.082150   -0.000755
  45 H :    0.159683   -0.001424
  46 H :    0.152603   -0.001216
  47 H :    0.079244   -0.000513
  48 H :    0.092840    0.000281
  49 H :    0.082012    0.000228
  50 H :    0.083825    0.000226
  51 H :    0.051969    0.041811
  52 H :    0.060689    0.043224
  53 H :    0.056766    0.042738
  54 H :    0.057548    0.046615
  55 H :    0.056322    0.046038
  56 H :    0.058000    0.046064
  57 H :    0.055323    0.046145
  58 H :    0.058019    0.045960
  59 H :    0.062000    0.045362
  60 H :    0.077988   -0.000593
  61 H :    0.152804    0.000693
  62 H :    0.149400    0.000764
  63 H :    0.074289   -0.000620
Sum of atomic charges         :   -1.0000000

LOEWDIN ATOMIC CHARGES AND SPIN POPULATIONS
-------------------------------------------
   0 C :   -0.103808    0.459270
   1 C :   -0.015750    0.011106
   2 C :   -0.022245    0.008814
   3 C :   -0.022338    0.008669
   4 C :   -0.020194    0.009344
   5 C :   -0.009185    0.010109
   6 C :   -0.011344    0.010039
   7 C :   -0.010318    0.010081
   8 C :   -0.012482    0.009974
   9 C :   -0.012713    0.009811
  10 C :   -0.011028    0.009885
  11 C :   -0.072793    0.001221
  12 C :   -0.070618    0.001327
  13 C :   -0.071003    0.001291
  14 C :   -0.106905    0.025939
  15 C :   -0.109508    0.026244
  16 C :   -0.109253    0.026833
  17 C :   -0.106246    0.037848
  18 C :   -0.106342    0.037878
  19 C :   -0.105784    0.037207
  20 C :   -0.105120    0.036841
  21 C :   -0.104977    0.036437
  22 C :   -0.105431    0.036595
  23 C :   -0.104800    0.457007
  24 C :   -0.103309    0.456408
  25 C :   -0.016273    0.010493
  26 C :   -0.016061    0.010400
  27 N :   -0.011232    0.007035
  28 H :   -0.010947    0.000537
  29 H :    0.025094   -0.000362
  30 H :   -0.009394    0.000447
  31 H :    0.024733   -0.000286
  32 H :    0.024763   -0.000271
  33 H :   -0.008641    0.000444
  34 H :   -0.010181    0.000436
  35 H :    0.023742   -0.000308
  36 H :   -0.014489    0.000514
  37 H :    0.028646    0.000247
  38 H :    0.028974    0.000237
  39 H :   -0.015683    0.000525
  40 H :    0.028633    0.000243
  41 H :   -0.016236    0.000528
  42 H :   -0.013665    0.000520
  43 H :    0.029855    0.000225
  44 H :    0.029956    0.000234
  45 H :   -0.015539    0.000525
  46 H :   -0.014390    0.000520
  47 H :    0.029874    0.000250
  48 H :    0.033971    0.000175
  49 H :    0.033110    0.000187
  50 H :    0.033188    0.000177
  51 H :    0.043699    0.019302
  52 H :    0.044029    0.019615
  53 H :    0.043912    0.019417
  54 H :    0.045025    0.022036
  55 H :    0.045032    0.021913
  56 H :    0.045222    0.021955
  57 H :    0.044978    0.021938
  58 H :    0.045350    0.021869
  59 H :    0.045765    0.021704
  60 H :    0.025461   -0.000352
  61 H :   -0.010793    0.000545
  62 H :   -0.011205    0.000555
  63 H :    0.025210   -0.000347

  Mayer bond orders larger than 0.100000
B(  0-C , 15-C ) :   1.0715 B(  0-C , 20-C ) :   1.0507 B(  0-C , 21-C ) :   1.0672
B(  0-C , 23-C ) :   0.1942 B(  0-C , 24-C ) :   0.1979 B(  0-C , 27-N ) :   0.1569
B(  1-C ,  4-C ) :   0.1381 B(  1-C , 15-C ) :   0.9665 B(  1-C , 16-C ) :   0.9603
B(  1-C , 28-H ) :   0.7788 B(  1-C , 29-H ) :   0.9871 B(  2-C , 17-C ) :   0.9821
B(  2-C , 21-C ) :   0.9754 B(  2-C , 25-C ) :   0.1505 B(  2-C , 30-H ) :   0.7725
B(  2-C , 31-H ) :   0.9776 B(  3-C , 19-C ) :   0.9847 B(  3-C , 22-C ) :   0.9758
B(  3-C , 26-C ) :   0.1519 B(  3-C , 32-H ) :   0.9729 B(  3-C , 33-H ) :   0.7704
B(  4-C , 18-C ) :   0.9786 B(  4-C , 20-C ) :   0.9829 B(  4-C , 34-H ) :   0.7790
B(  4-C , 35-H ) :   0.9846 B(  5-C ,  7-C ) :   0.1518 B(  5-C , 13-C ) :   0.9400
B(  5-C , 17-C ) :   0.9661 B(  5-C , 36-H ) :   0.7695 B(  5-C , 37-H ) :   0.9797
B(  6-C , 10-C ) :   0.1483 B(  6-C , 11-C ) :   0.9523 B(  6-C , 18-C ) :   0.9648
B(  6-C , 38-H ) :   0.9745 B(  6-C , 39-H ) :   0.7700 B(  7-C , 12-C ) :   0.9419
B(  7-C , 19-C ) :   0.9623 B(  7-C , 40-H ) :   0.9814 B(  7-C , 41-H ) :   0.7723
B(  8-C ,  9-C ) :   0.1553 B(  8-C , 11-C ) :   0.9585 B(  8-C , 20-C ) :   0.9629
B(  8-C , 42-H ) :   0.7655 B(  8-C , 43-H ) :   0.9731 B(  9-C , 13-C ) :   0.9616
B(  9-C , 21-C ) :   0.9599 B(  9-C , 44-H ) :   0.9743 B(  9-C , 45-H ) :   0.7645
B( 10-C , 12-C ) :   0.9575 B( 10-C , 22-C ) :   0.9650 B( 10-C , 46-H ) :   0.7665
B( 10-C , 47-H ) :   0.9734 B( 11-C , 12-C ) :   0.1072 B( 11-C , 13-C ) :   0.1060
B( 11-C , 27-N ) :   1.1154 B( 11-C , 48-H ) :   1.0095 B( 12-C , 13-C ) :   0.1079
B( 12-C , 27-N ) :   1.0954 B( 12-C , 49-H ) :   1.0176 B( 13-C , 27-N ) :   1.1014
B( 13-C , 50-H ) :   1.0139 B( 14-C , 17-C ) :   0.2226 B( 14-C , 19-C ) :   0.2220
B( 14-C , 23-C ) :   1.0636 B( 14-C , 25-C ) :   0.9596 B( 14-C , 26-C ) :   0.9615
B( 14-C , 51-H ) :   1.0200 B( 15-C , 20-C ) :   0.2220 B( 15-C , 21-C ) :   0.2190
B( 15-C , 25-C ) :   0.9603 B( 15-C , 52-H ) :   1.0081 B( 16-C , 18-C ) :   0.2296
B( 16-C , 22-C ) :   0.2284 B( 16-C , 24-C ) :   1.0608 B( 16-C , 26-C ) :   0.9567
B( 16-C , 53-H ) :   1.0213 B( 17-C , 19-C ) :   0.2173 B( 17-C , 23-C ) :   1.0589
B( 17-C , 54-H ) :   1.0096 B( 18-C , 22-C ) :   0.2141 B( 18-C , 24-C ) :   1.0386
B( 18-C , 55-H ) :   1.0176 B( 19-C , 23-C ) :   1.0632 B( 19-C , 56-H ) :   1.0045
B( 20-C , 21-C ) :   0.2122 B( 20-C , 57-H ) :   1.0050 B( 21-C , 58-H ) :   0.9985
B( 22-C , 24-C ) :   1.0559 B( 22-C , 59-H ) :   1.0047 B( 23-C , 24-C ) :   0.1931
B( 23-C , 27-N ) :   0.1603 B( 24-C , 27-N ) :   0.1582 B( 25-C , 60-H ) :   0.9800
B( 25-C , 61-H ) :   0.7742 B( 26-C , 62-H ) :   0.7737 B( 26-C , 63-H ) :   0.9782
B( 28-H , 34-H ) :   0.2277 B( 30-H , 61-H ) :   0.2265 B( 33-H , 62-H ) :   0.2247
B( 36-H , 41-H ) :   0.2423 B( 39-H , 46-H ) :   0.2425 B( 42-H , 45-H ) :   0.2422

FINAL SINGLE POINT ENERGY     -1103.168037310059

DIPOLE MOMENT
-------------
                                X             Y             Z
Electronic contribution:      0.00179       0.00866       1.06712
Nuclear contribution   :     -0.00336       0.00179      -0.32886
                        -----------------------------------------
Total Dipole Moment    :     -0.00158       0.01045       0.73826
                        -----------------------------------------
Magnitude (a.u.)       :      0.73833
Magnitude (Debye)      :      1.87669

Rotational constants in cm-1:     0.009246     0.009141     0.009141
Rotational constants in MHz :   277.183097   274.048600   274.045280

                             ****ORCA TERMINATED NORMALLY****
TOTAL RUN TIME: 0 days 0 hours 4 minutes 37 seconds 536 msec
