                         Program Version 4.2.1 -  RELEASE  -
|  1> # Use EPR-II is a special basis set for epr, autoaux creates a large auxiliary basis
|  2> !PBE EPR-II AUTOAUX RIJCOSX
|  3>
|  4> # use original (unoptimized) cluster xyz
|  5> *xyzfile -1 3 nv.xyz
|  6>
|  7> # Parallelization
|  8> %PAL NPROCS 72 END
|  9>
| 10> # ZFS calculation
| 11> %EPRNMR DTENSOR SSANDSO
| 12>     DSS     UNO
| 13>     DSOC    CP
| 14> END
| 15>
| 16>                          ****END OF INPUT****

CARTESIAN COORDINATES (ANGSTROEM)
---------------------------------
  C     -0.635380    1.402386   -2.249811
  C      0.847823    1.183242   -4.258023
  C     -2.889459    0.284694   -2.199697
  C      1.198184   -2.644597   -2.199804
  C      1.691203    2.360048   -2.199700
  C     -2.275449   -1.038894   -0.144983
  C      2.281433    1.025685   -0.144986
  C     -0.252451   -2.488618   -0.145035
  C      0.238009    2.490047   -0.144933
  C     -2.028987    1.462942   -0.144931
  C      2.037435   -1.451143   -0.145037
  C      0.828242    1.155744    0.395617
  C      0.586797   -1.295159    0.395566
  C     -1.415026    0.139390    0.395618
  C     -0.850013   -1.186000   -3.737621
  C     -0.602233    1.329221   -3.737569
  C      1.452123   -0.142975   -3.737623
  C     -2.275004   -1.037876   -1.693673
  C      2.280371    1.026021   -1.693676
  C     -0.251684   -2.487830   -1.693726
  C      0.238613    2.489188   -1.693623
  C     -2.028743    1.461920   -1.693621
  C      2.036334   -1.451201   -1.693727
  C     -0.896806   -1.251352   -2.249865
  C      1.532112   -0.150886   -2.249867
  C     -1.448620    0.142796   -4.258021
  C      0.600656   -1.325759   -4.258075
  N      0.000000    0.000000    0.000000
  H      1.436783    2.005085   -3.907906
  H      0.843636    1.177438   -5.328003
  H     -2.906941    0.286439   -3.269544
  H     -3.889866    0.383240   -1.833101
  H      1.612044   -3.558055   -1.826663
  H      1.208311   -2.666953   -3.269519
  H      1.701416    2.374340   -3.269548
  H      2.276762    3.177144   -1.833106
  H     -1.868900   -1.963732    0.207581
  H     -3.280760   -0.924284    0.203028
  H      2.864522    1.850564    0.207839
  H      2.701239    0.104963    0.202756
  H      0.170384   -3.406036    0.207753
  H     -1.259710   -2.391827    0.202744
  H     -0.766186    2.600376    0.207668
  H      0.839932    3.303357    0.203076
  H     -3.034899    1.555458    0.207895
  H     -1.441522    2.286851    0.202848
  H      2.635093   -0.636658    0.207562
  H      2.440835   -2.379087    0.202936
  H      0.835530    1.165874    1.465539
  H      0.591965   -1.306562    1.465488
  H     -1.427446    0.140591    1.465541
  H     -1.435378   -2.002825   -4.105093
  H     -1.016956    2.244582   -4.105005
  H      2.452198   -0.241487   -4.105096
  H     -2.870780   -1.856546   -2.039696
  H      3.288699    0.934120   -2.039701
  H     -0.835448   -3.315108   -2.039749
  H     -0.172500    3.414489   -2.039611
  H     -2.453318    2.381122   -2.039609
  H      3.043213   -1.557809   -2.039752
  H     -1.441725    0.142139   -5.328007
  H     -2.454772    0.241908   -3.907684
  H      1.017926   -2.246742   -3.907994
  H      0.597686   -1.319205   -5.328055

 Total Charge           Charge          ....   -1
 Multiplicity           Mult            ....    3
 Number of Electrons    NEL             ....  206
 Basis Dimension        Dim             ....  728

ORBITAL ENERGIES
----------------
                 SPIN UP ORBITALS
  NO   OCC          E(Eh)            E(eV)
   0   1.0000     -13.855694      -377.0326
   1   1.0000      -9.801438      -266.7107
   2   1.0000      -9.801157      -266.7030
   3   1.0000      -9.801087      -266.7011
   4   1.0000      -9.762962      -265.6637
   5   1.0000      -9.762675      -265.6559
   6   1.0000      -9.762662      -265.6555
   7   1.0000      -9.762625      -265.6545
   8   1.0000      -9.762619      -265.6544
   9   1.0000      -9.762603      -265.6539
  10   1.0000      -9.755791      -265.4686
  11   1.0000      -9.755534      -265.4616
  12   1.0000      -9.755353      -265.4567
  13   1.0000      -9.749084      -265.2861
  14   1.0000      -9.749048      -265.2851
  15   1.0000      -9.748942      -265.2822
  16   1.0000      -9.748580      -265.2723
  17   1.0000      -9.748347      -265.2660
  18   1.0000      -9.747932      -265.2547
  19   1.0000      -9.740092      -265.0414
  20   1.0000      -9.739504      -265.0254
  21   1.0000      -9.739140      -265.0155
  22   1.0000      -9.735734      -264.9228
  23   1.0000      -9.735370      -264.9129
  24   1.0000      -9.735328      -264.9117
  25   1.0000      -9.734585      -264.8915
  26   1.0000      -9.734433      -264.8874
  27   1.0000      -9.734100      -264.8783
  28   1.0000      -0.729676       -19.8555
  29   1.0000      -0.667427       -18.1616
  30   1.0000      -0.652356       -17.7515
  31   1.0000      -0.652243       -17.7484
  32   1.0000      -0.609345       -16.5811
  33   1.0000      -0.598146       -16.2764
  34   1.0000      -0.598073       -16.2744
  35   1.0000      -0.582449       -15.8492
  36   1.0000      -0.582349       -15.8465
  37   1.0000      -0.545774       -14.8513
  38   1.0000      -0.521605       -14.1936
  39   1.0000      -0.521507       -14.1909
  40   1.0000      -0.518962       -14.1217
  41   1.0000      -0.515944       -14.0395
  42   1.0000      -0.515722       -14.0335
  43   1.0000      -0.501955       -13.6589
  44   1.0000      -0.444674       -12.1002
  45   1.0000      -0.444616       -12.0986
  46   1.0000      -0.423875       -11.5342
  47   1.0000      -0.405278       -11.0282
  48   1.0000      -0.405265       -11.0278
  49   1.0000      -0.400268       -10.8919
  50   1.0000      -0.397501       -10.8165
  51   1.0000      -0.384040       -10.4503
  52   1.0000      -0.383952       -10.4479
  53   1.0000      -0.358428        -9.7533
  54   1.0000      -0.357955        -9.7405
  55   1.0000      -0.357885        -9.7385
  56   1.0000      -0.346439        -9.4271
  57   1.0000      -0.312903        -8.5145
  58   1.0000      -0.308938        -8.4066
  59   1.0000      -0.308918        -8.4061
  60   1.0000      -0.301331        -8.1996
  61   1.0000      -0.301191        -8.1958
  62   1.0000      -0.282088        -7.6760
  63   1.0000      -0.279250        -7.5988
  64   1.0000      -0.279223        -7.5980
  65   1.0000      -0.275629        -7.5003
  66   1.0000      -0.275576        -7.4988
  67   1.0000      -0.242660        -6.6031
  68   1.0000      -0.242584        -6.6011
  69   1.0000      -0.238248        -6.4830
  70   1.0000      -0.231041        -6.2870
  71   1.0000      -0.228430        -6.2159
  72   1.0000      -0.226295        -6.1578
  73   1.0000      -0.226215        -6.1556
  74   1.0000      -0.212441        -5.7808
  75   1.0000      -0.212420        -5.7802
  76   1.0000      -0.210118        -5.7176
  77   1.0000      -0.197014        -5.3610
  78   1.0000      -0.190609        -5.1867
  79   1.0000      -0.190592        -5.1863
  80   1.0000      -0.179324        -4.8797
  81   1.0000      -0.179276        -4.8784
  82   1.0000      -0.171395        -4.6639
  83   1.0000      -0.166786        -4.5385
  84   1.0000      -0.166717        -4.5366
  85   1.0000      -0.161149        -4.3851
  86   1.0000      -0.158656        -4.3172
  87   1.0000      -0.156264        -4.2522
  88   1.0000      -0.156173        -4.2497
  89   1.0000      -0.146917        -3.9978
  90   1.0000      -0.146906        -3.9975
  91   1.0000      -0.135101        -3.6763
  92   1.0000      -0.119921        -3.2632
  93   1.0000      -0.119868        -3.2618
  94   1.0000      -0.095619        -2.6019
  95   1.0000      -0.095543        -2.5999
  96   1.0000      -0.092614        -2.5202
  97   1.0000      -0.077028        -2.0960
  98   1.0000      -0.059095        -1.6080
  99   1.0000      -0.056878        -1.5477
 100   1.0000      -0.056508        -1.5377
 101   1.0000       0.002077         0.0565
 102   1.0000       0.047340         1.2882
 103   1.0000       0.047575         1.2946
 104   0.0000       0.096963         2.6385
 105   0.0000       0.113816         3.0971
 106   0.0000       0.116305         3.1648
 107   0.0000       0.117291         3.1917
 108   0.0000       0.124717         3.3937

                 SPIN DOWN ORBITALS
  NO   OCC          E(Eh)            E(eV)
   0   1.0000     -13.855644      -377.0312
   1   1.0000      -9.801392      -266.7094
   2   1.0000      -9.801110      -266.7018
   3   1.0000      -9.801041      -266.6999
   4   1.0000      -9.763192      -265.6700
   5   1.0000      -9.762908      -265.6622
   6   1.0000      -9.762894      -265.6618
   7   1.0000      -9.762855      -265.6608
   8   1.0000      -9.762850      -265.6606
   9   1.0000      -9.762835      -265.6602
  10   1.0000      -9.756192      -265.4795
  11   1.0000      -9.755930      -265.4724
  12   1.0000      -9.755752      -265.4675
  13   1.0000      -9.748977      -265.2831
  14   1.0000      -9.748942      -265.2822
  15   1.0000      -9.748834      -265.2793
  16   1.0000      -9.748474      -265.2695
  17   1.0000      -9.748239      -265.2631
  18   1.0000      -9.747825      -265.2518
  19   1.0000      -9.739935      -265.0371
  20   1.0000      -9.739348      -265.0211
  21   1.0000      -9.738984      -265.0112
  22   1.0000      -9.735540      -264.9175
  23   1.0000      -9.735176      -264.9076
  24   1.0000      -9.735133      -264.9064
  25   1.0000      -9.725888      -264.6549
  26   1.0000      -9.725759      -264.6514
  27   1.0000      -9.725360      -264.6405
  28   1.0000      -0.729056       -19.8386
  29   1.0000      -0.664432       -18.0801
  30   1.0000      -0.650486       -17.7006
  31   1.0000      -0.650370       -17.6975
  32   1.0000      -0.608882       -16.5685
  33   1.0000      -0.597674       -16.2635
  34   1.0000      -0.597595       -16.2614
  35   1.0000      -0.579725       -15.7751
  36   1.0000      -0.579619       -15.7722
  37   1.0000      -0.545166       -14.8347
  38   1.0000      -0.520881       -14.1739
  39   1.0000      -0.520780       -14.1712
  40   1.0000      -0.518286       -14.1033
  41   1.0000      -0.512719       -13.9518
  42   1.0000      -0.512483       -13.9454
  43   1.0000      -0.495599       -13.4859
  44   1.0000      -0.444035       -12.0828
  45   1.0000      -0.443980       -12.0813
  46   1.0000      -0.423662       -11.5284
  47   1.0000      -0.404514       -11.0074
  48   1.0000      -0.404504       -11.0071
  49   1.0000      -0.399184       -10.8623
  50   1.0000      -0.395493       -10.7619
  51   1.0000      -0.381058       -10.3691
  52   1.0000      -0.380961       -10.3665
  53   1.0000      -0.357223        -9.7205
  54   1.0000      -0.356406        -9.6983
  55   1.0000      -0.356328        -9.6962
  56   1.0000      -0.341555        -9.2942
  57   1.0000      -0.310376        -8.4458
  58   1.0000      -0.307420        -8.3653
  59   1.0000      -0.307363        -8.3638
  60   1.0000      -0.297583        -8.0976
  61   1.0000      -0.297435        -8.0936
  62   1.0000      -0.280701        -7.6383
  63   1.0000      -0.277374        -7.5477
  64   1.0000      -0.277316        -7.5462
  65   1.0000      -0.273902        -7.4533
  66   1.0000      -0.273885        -7.4528
  67   1.0000      -0.240915        -6.5556
  68   1.0000      -0.240837        -6.5535
  69   1.0000      -0.236273        -6.4293
  70   1.0000      -0.228835        -6.2269
  71   1.0000      -0.225350        -6.1321
  72   1.0000      -0.224770        -6.1163
  73   1.0000      -0.224693        -6.1142
  74   1.0000      -0.212055        -5.7703
  75   1.0000      -0.212039        -5.7699
  76   1.0000      -0.209875        -5.7110
  77   1.0000      -0.195757        -5.3268
  78   1.0000      -0.187664        -5.1066
  79   1.0000      -0.187645        -5.1061
  80   1.0000      -0.178341        -4.8529
  81   1.0000      -0.178291        -4.8516
  82   1.0000      -0.171038        -4.6542
  83   1.0000      -0.166012        -4.5174
  84   1.0000      -0.165942        -4.5155
  85   1.0000      -0.159848        -4.3497
  86   1.0000      -0.156047        -4.2463
  87   1.0000      -0.154832        -4.2132
  88   1.0000      -0.154741        -4.2107
  89   1.0000      -0.144780        -3.9397
  90   1.0000      -0.144770        -3.9394
  91   1.0000      -0.132005        -3.5920
  92   1.0000      -0.117103        -3.1865
  93   1.0000      -0.117041        -3.1849
  94   1.0000      -0.093244        -2.5373
  95   1.0000      -0.093166        -2.5352
  96   1.0000      -0.090764        -2.4698
  97   1.0000      -0.060828        -1.6552
  98   1.0000      -0.058594        -1.5944
  99   1.0000      -0.056481        -1.5369
 100   1.0000      -0.056109        -1.5268
 101   1.0000       0.023514         0.6398
 102   0.0000       0.083199         2.2640
 103   0.0000       0.083777         2.2797
 104   0.0000       0.097819         2.6618
 105   0.0000       0.117895         3.2081
 106   0.0000       0.119307         3.2465

MULLIKEN ATOMIC CHARGES AND SPIN POPULATIONS
--------------------------------------------
   0 C :    0.913142    0.356131
   1 C :   -0.346686    0.004354
   2 C :   -0.354150   -0.028932
   3 C :   -0.368924   -0.032798
   4 C :   -0.384556   -0.030723
   5 C :   -0.336151   -0.015282
   6 C :   -0.337941   -0.014993
   7 C :   -0.351273   -0.014619
   8 C :   -0.353774   -0.014185
   9 C :   -0.360473   -0.012160
  10 C :   -0.357924   -0.012473
  11 C :   -0.159025    0.009603
  12 C :   -0.155284    0.009642
  13 C :   -0.176422    0.009400
  14 C :   -0.361257    0.045007
  15 C :   -0.353148    0.035684
  16 C :   -0.337513    0.040348
  17 C :   -0.330207    0.107795
  18 C :   -0.312202    0.104463
  19 C :   -0.323095    0.103433
  20 C :   -0.299992    0.097397
  21 C :   -0.306431    0.095163
  22 C :   -0.305172    0.100642
  23 C :    0.932456    0.333979
  24 C :    0.887356    0.344073
  25 C :   -0.341530    0.006620
  26 C :   -0.319782    0.003402
  27 N :    0.389980   -0.017399
  28 H :    0.154917    0.000667
  29 H :    0.079019   -0.000600
  30 H :    0.153559   -0.001320
  31 H :    0.067184   -0.001930
  32 H :    0.073327   -0.001348
  33 H :    0.163693   -0.001260
  34 H :    0.161493   -0.001323
  35 H :    0.077948   -0.001701
  36 H :    0.143318   -0.000490
  37 H :    0.069973   -0.000694
  38 H :    0.066065   -0.000510
  39 H :    0.151028   -0.000669
  40 H :    0.075356   -0.000455
  41 H :    0.157708   -0.001153
  42 H :    0.151655   -0.001311
  43 H :    0.079688   -0.000816
  44 H :    0.077737   -0.000880
  45 H :    0.158552   -0.000905
  46 H :    0.150053   -0.001021
  47 H :    0.072765   -0.000479
  48 H :    0.085362    0.000225
  49 H :    0.082697    0.000234
  50 H :    0.092206    0.000273
  51 H :    0.055130    0.042639
  52 H :    0.060008    0.043304
  53 H :    0.053249    0.041797
  54 H :    0.056464    0.046130
  55 H :    0.058190    0.046487
  56 H :    0.062270    0.045233
  57 H :    0.056260    0.046189
  58 H :    0.054404    0.046281
  59 H :    0.058211    0.045922
  60 H :    0.075932   -0.000703
  61 H :    0.151199    0.000478
  62 H :    0.149685    0.000758
  63 H :    0.073675   -0.000627
Sum of atomic charges         :   -1.0000000

LOEWDIN ATOMIC CHARGES AND SPIN POPULATIONS
-------------------------------------------
   0 C :   -0.103970    0.459571
   1 C :   -0.016600    0.010551
   2 C :   -0.020259    0.009275
   3 C :   -0.022221    0.008662
   4 C :   -0.022344    0.008874
   5 C :   -0.010630    0.010036
   6 C :   -0.009609    0.010080
   7 C :   -0.010728    0.009859
   8 C :   -0.012097    0.009852
   9 C :   -0.013229    0.009991
  10 C :   -0.010261    0.010126
  11 C :   -0.071270    0.001278
  12 C :   -0.070758    0.001323
  13 C :   -0.072706    0.001232
  14 C :   -0.108991    0.026952
  15 C :   -0.109212    0.026130
  16 C :   -0.107191    0.025983
  17 C :   -0.106436    0.038046
  18 C :   -0.106448    0.037835
  19 C :   -0.105656    0.036673
  20 C :   -0.104922    0.036603
  21 C :   -0.104931    0.036618
  22 C :   -0.105529    0.037009
  23 C :   -0.103402    0.455741
  24 C :   -0.104784    0.457326
  25 C :   -0.015848    0.011047
  26 C :   -0.015877    0.010408
  27 N :   -0.011169    0.007033
  28 H :   -0.010659    0.000543
  29 H :    0.025536   -0.000353
  30 H :   -0.010123    0.000437
  31 H :    0.023834   -0.000306
  32 H :    0.024686   -0.000272
  33 H :   -0.008690    0.000444
  34 H :   -0.009368    0.000445
  35 H :    0.024740   -0.000290
  36 H :   -0.014105    0.000517
  37 H :    0.029204    0.000245
  38 H :    0.028352    0.000241
  39 H :   -0.016060    0.000520
  40 H :    0.029255    0.000248
  41 H :   -0.016222    0.000527
  42 H :   -0.013823    0.000517
  43 H :    0.030093    0.000234
  44 H :    0.029731    0.000223
  45 H :   -0.015356    0.000528
  46 H :   -0.014515    0.000522
  47 H :    0.029092    0.000246
  48 H :    0.033286    0.000174
  49 H :    0.033174    0.000187
  50 H :    0.033937    0.000177
  51 H :    0.043824    0.019377
  52 H :    0.043978    0.019636
  53 H :    0.043820    0.019321
  54 H :    0.045068    0.021908
  55 H :    0.045085    0.022022
  56 H :    0.045741    0.021695
  57 H :    0.045211    0.021921
  58 H :    0.044927    0.021938
  59 H :    0.045359    0.021927
  60 H :    0.025099   -0.000360
  61 H :   -0.010966    0.000539
  62 H :   -0.011224    0.000556
  63 H :    0.025155   -0.000346

  Mayer bond orders larger than 0.100000
B(  0-C , 15-C ) :   1.0754 B(  0-C , 20-C ) :   1.0694 B(  0-C , 21-C ) :   1.0543
B(  0-C , 23-C ) :   0.1983 B(  0-C , 24-C ) :   0.1941 B(  0-C , 27-N ) :   0.1563
B(  1-C ,  4-C ) :   0.1503 B(  1-C , 15-C ) :   0.9612 B(  1-C , 16-C ) :   0.9609
B(  1-C , 28-H ) :   0.7747 B(  1-C , 29-H ) :   0.9804 B(  2-C , 17-C ) :   0.9776
B(  2-C , 21-C ) :   0.9831 B(  2-C , 25-C ) :   0.1398 B(  2-C , 30-H ) :   0.7783
B(  2-C , 31-H ) :   0.9835 B(  3-C , 19-C ) :   0.9762 B(  3-C , 22-C ) :   0.9849
B(  3-C , 26-C ) :   0.1525 B(  3-C , 32-H ) :   0.9725 B(  3-C , 33-H ) :   0.7702
B(  4-C , 18-C ) :   0.9826 B(  4-C , 20-C ) :   0.9765 B(  4-C , 34-H ) :   0.7735
B(  4-C , 35-H ) :   0.9787 B(  5-C ,  7-C ) :   0.1466 B(  5-C , 13-C ) :   0.9507
B(  5-C , 17-C ) :   0.9660 B(  5-C , 36-H ) :   0.7696 B(  5-C , 37-H ) :   0.9748
B(  6-C , 10-C ) :   0.1499 B(  6-C , 11-C ) :   0.9422 B(  6-C , 18-C ) :   0.9658
B(  6-C , 38-H ) :   0.9791 B(  6-C , 39-H ) :   0.7692 B(  7-C , 12-C ) :   0.9544
B(  7-C , 19-C ) :   0.9668 B(  7-C , 40-H ) :   0.9739 B(  7-C , 41-H ) :   0.7688
B(  8-C ,  9-C ) :   0.1547 B(  8-C , 11-C ) :   0.9613 B(  8-C , 20-C ) :   0.9613
B(  8-C , 42-H ) :   0.7636 B(  8-C , 43-H ) :   0.9741 B(  9-C , 13-C ) :   0.9594
B(  9-C , 21-C ) :   0.9622 B(  9-C , 44-H ) :   0.9735 B(  9-C , 45-H ) :   0.7655
B( 10-C , 12-C ) :   0.9459 B( 10-C , 22-C ) :   0.9629 B( 10-C , 46-H ) :   0.7703
B( 10-C , 47-H ) :   0.9808 B( 11-C , 12-C ) :   0.1086 B( 11-C , 13-C ) :   0.1062
B( 11-C , 27-N ) :   1.1016 B( 11-C , 48-H ) :   1.0127 B( 12-C , 13-C ) :   0.1081
B( 12-C , 27-N ) :   1.0933 B( 12-C , 49-H ) :   1.0179 B( 13-C , 27-N ) :   1.1141
B( 13-C , 50-H ) :   1.0098 B( 14-C , 17-C ) :   0.2302 B( 14-C , 19-C ) :   0.2301
B( 14-C , 23-C ) :   1.0586 B( 14-C , 25-C ) :   0.9589 B( 14-C , 26-C ) :   0.9566
B( 14-C , 51-H ) :   1.0244 B( 15-C , 20-C ) :   0.2171 B( 15-C , 21-C ) :   0.2195
B( 15-C , 25-C ) :   0.9661 B( 15-C , 52-H ) :   1.0059 B( 16-C , 18-C ) :   0.2223
B( 16-C , 22-C ) :   0.2203 B( 16-C , 24-C ) :   1.0646 B( 16-C , 26-C ) :   0.9618
B( 16-C , 53-H ) :   1.0191 B( 17-C , 19-C ) :   0.2157 B( 17-C , 23-C ) :   1.0394
B( 17-C , 54-H ) :   1.0190 B( 18-C , 22-C ) :   0.2163 B( 18-C , 24-C ) :   1.0572
B( 18-C , 55-H ) :   1.0094 B( 19-C , 23-C ) :   1.0526 B( 19-C , 56-H ) :   1.0072
B( 20-C , 21-C ) :   0.2125 B( 20-C , 57-H ) :   0.9982 B( 21-C , 58-H ) :   1.0022
B( 22-C , 24-C ) :   1.0653 B( 22-C , 59-H ) :   1.0020 B( 23-C , 24-C ) :   0.1925
B( 23-C , 27-N ) :   0.1589 B( 24-C , 27-N ) :   0.1606 B( 25-C , 60-H ) :   0.9866
B( 25-C , 61-H ) :   0.7785 B( 26-C , 62-H ) :   0.7731 B( 26-C , 63-H ) :   0.9782
B( 28-H , 34-H ) :   0.2261 B( 30-H , 61-H ) :   0.2272 B( 33-H , 62-H ) :   0.2247
B( 36-H , 41-H ) :   0.2424 B( 39-H , 46-H ) :   0.2434 B( 42-H , 45-H ) :   0.2430

FINAL SINGLE POINT ENERGY     -1103.167976202904

DIPOLE MOMENT
-------------
                                X             Y             Z
Electronic contribution:      0.00680       0.00026       1.06654
Nuclear contribution   :      0.00146      -0.00352      -0.32886
                        -----------------------------------------
Total Dipole Moment    :      0.00827      -0.00326       0.73768
                        -----------------------------------------
Magnitude (a.u.)       :      0.73773
Magnitude (Debye)      :      1.87517

Rotational constants in cm-1:     0.009246     0.009141     0.009141
Rotational constants in MHz :   277.183097   274.048600   274.045280

                             ****ORCA TERMINATED NORMALLY****
TOTAL RUN TIME: 0 days 0 hours 4 minutes 38 seconds 995 msec
