                         Program Version 4.2.1 -  RELEASE  -
|  1> # Use EPR-II is a special basis set for epr, autoaux creates a large auxiliary basis
|  2> !PBE EPR-II AUTOAUX RIJCOSX
|  3>
|  4> # use original (unoptimized) cluster xyz
|  5> *xyzfile -1 3 nv.xyz
|  6>
|  7> # Parallelization
|  8> %PAL NPROCS 72 END
|  9>
| 10> # ZFS calculation
| 11> %EPRNMR DTENSOR SSANDSO
| 12>     DSS     UNO
| 13>     DSOC    CP
| 14> END
| 15>
| 16>                          ****END OF INPUT****

CARTESIAN COORDINATES (ANGSTROEM)
---------------------------------
  C     -0.769779    1.333355   -2.249811
  C      0.727763    1.260646   -4.258023
  C     -2.903450    0.000107   -2.199697
  C      1.451630   -2.514420   -2.199804
  C      1.451734    2.514450   -2.199700
  C     -2.162662   -1.256925   -0.144983
  C      2.169913    1.244365   -0.144986
  C     -0.007308   -2.501379   -0.145035
  C     -0.007205    2.501385   -0.144933
  C     -2.162610    1.257022   -0.144931
  C      2.169861   -1.244451   -0.145037
  C      0.710971    1.231360    0.395617
  C      0.710920   -1.231407    0.395566
  C     -1.421875    0.000022    0.395618
  C     -0.729672   -1.263605   -3.737621
  C     -0.729620    1.263791   -3.737569
  C      1.459145    0.000047   -3.737623
  C     -2.162319   -1.255868   -1.693673
  C      2.168823    1.244596   -1.693676
  C     -0.006622   -2.500520   -1.693726
  C     -0.006519    2.500590   -1.693623
  C     -2.162267    1.256029   -1.693621
  C      2.168771   -1.244617   -1.693727
  C     -0.769834   -1.333229   -2.249865
  C      1.539524    0.000014   -2.249867
  C     -1.455641    0.000119   -4.258021
  C      0.727711   -1.260500   -4.258075
  N      0.000000    0.000000    0.000000
  H      1.233332    2.136259   -3.907906
  H      0.724164    1.254459   -5.328003
  H     -2.921019    0.000130   -3.269544
  H     -3.908700    0.000121   -1.833101
  H      1.953032   -3.382914   -1.826663
  H      1.463900   -2.535675   -3.269519
  H      1.460498    2.529675   -3.269548
  H      1.954384    3.385007   -1.833106
  H     -1.667422   -2.137460    0.207581
  H     -3.174366   -1.241404    0.203028
  H      2.669342    2.122425    0.207839
  H      2.677944    0.369225    0.202756
  H      0.503413   -3.372934    0.207753
  H     -1.019204   -2.503783    0.202744
  H     -1.017378    2.512755    0.207668
  H      0.512102    3.369779    0.203076
  H     -3.172747    1.250496    0.207895
  H     -1.658732    2.134545    0.202848
  H      2.684808   -0.375308    0.207562
  H      2.662273   -2.128387    0.202936
  H      0.717231    1.242157    1.465539
  H      0.717180   -1.242248    1.465488
  H     -1.434353    0.000000    1.465541
  H     -1.232155   -2.133873   -4.105093
  H     -1.232066    2.134095   -4.105005
  H      2.464060    0.000033   -4.105096
  H     -2.674983   -2.128992   -2.039696
  H      3.181303    1.251971   -2.039701
  H     -0.506488   -3.381033   -2.039749
  H     -0.506348    3.381139   -2.039611
  H     -2.674895    2.129189   -2.039609
  H      3.181251   -1.252021   -2.039752
  H     -1.448714    0.000141   -5.328007
  H     -2.466663    0.000133   -3.907684
  H      1.233243   -2.136149   -3.907994
  H      0.724112   -1.254269   -5.328055

 Total Charge           Charge          ....   -1
 Multiplicity           Mult            ....    3
 Number of Electrons    NEL             ....  206
 Basis Dimension        Dim             ....  728

ORBITAL ENERGIES
----------------
                 SPIN UP ORBITALS
  NO   OCC          E(Eh)            E(eV)
   0   1.0000     -13.855770      -377.0347
   1   1.0000      -9.801452      -266.7111
   2   1.0000      -9.801145      -266.7027
   3   1.0000      -9.801104      -266.7016
   4   1.0000      -9.762921      -265.6626
   5   1.0000      -9.762729      -265.6574
   6   1.0000      -9.762662      -265.6555
   7   1.0000      -9.762624      -265.6545
   8   1.0000      -9.762566      -265.6529
   9   1.0000      -9.762537      -265.6521
  10   1.0000      -9.755574      -265.4627
  11   1.0000      -9.755533      -265.4615
  12   1.0000      -9.755480      -265.4601
  13   1.0000      -9.749187      -265.2889
  14   1.0000      -9.749095      -265.2864
  15   1.0000      -9.748729      -265.2764
  16   1.0000      -9.748499      -265.2702
  17   1.0000      -9.748496      -265.2701
  18   1.0000      -9.747989      -265.2563
  19   1.0000      -9.739989      -265.0386
  20   1.0000      -9.739633      -265.0289
  21   1.0000      -9.739052      -265.0131
  22   1.0000      -9.735584      -264.9187
  23   1.0000      -9.735466      -264.9155
  24   1.0000      -9.735371      -264.9129
  25   1.0000      -9.734665      -264.8937
  26   1.0000      -9.734187      -264.8807
  27   1.0000      -9.734177      -264.8804
  28   1.0000      -0.729721       -19.8567
  29   1.0000      -0.667404       -18.1610
  30   1.0000      -0.652352       -17.7514
  31   1.0000      -0.652242       -17.7484
  32   1.0000      -0.609356       -16.5814
  33   1.0000      -0.598189       -16.2775
  34   1.0000      -0.598043       -16.2736
  35   1.0000      -0.582443       -15.8491
  36   1.0000      -0.582305       -15.8453
  37   1.0000      -0.545780       -14.8514
  38   1.0000      -0.521563       -14.1925
  39   1.0000      -0.521521       -14.1913
  40   1.0000      -0.518951       -14.1214
  41   1.0000      -0.515907       -14.0386
  42   1.0000      -0.515747       -14.0342
  43   1.0000      -0.501957       -13.6589
  44   1.0000      -0.444682       -12.1004
  45   1.0000      -0.444610       -12.0985
  46   1.0000      -0.423897       -11.5348
  47   1.0000      -0.405315       -11.0292
  48   1.0000      -0.405267       -11.0279
  49   1.0000      -0.400247       -10.8913
  50   1.0000      -0.397477       -10.8159
  51   1.0000      -0.384069       -10.4511
  52   1.0000      -0.383925       -10.4471
  53   1.0000      -0.358442        -9.7537
  54   1.0000      -0.357965        -9.7407
  55   1.0000      -0.357836        -9.7372
  56   1.0000      -0.346438        -9.4271
  57   1.0000      -0.312929        -8.5152
  58   1.0000      -0.308975        -8.4076
  59   1.0000      -0.308900        -8.4056
  60   1.0000      -0.301305        -8.1989
  61   1.0000      -0.301240        -8.1972
  62   1.0000      -0.282114        -7.6767
  63   1.0000      -0.279269        -7.5993
  64   1.0000      -0.279197        -7.5973
  65   1.0000      -0.275606        -7.4996
  66   1.0000      -0.275585        -7.4990
  67   1.0000      -0.242662        -6.6032
  68   1.0000      -0.242550        -6.6001
  69   1.0000      -0.238281        -6.4839
  70   1.0000      -0.231004        -6.2860
  71   1.0000      -0.228432        -6.2159
  72   1.0000      -0.226277        -6.1573
  73   1.0000      -0.226212        -6.1555
  74   1.0000      -0.212438        -5.7807
  75   1.0000      -0.212373        -5.7790
  76   1.0000      -0.210094        -5.7169
  77   1.0000      -0.197016        -5.3611
  78   1.0000      -0.190606        -5.1866
  79   1.0000      -0.190592        -5.1863
  80   1.0000      -0.179314        -4.8794
  81   1.0000      -0.179309        -4.8792
  82   1.0000      -0.171369        -4.6632
  83   1.0000      -0.166753        -4.5376
  84   1.0000      -0.166722        -4.5367
  85   1.0000      -0.161162        -4.3854
  86   1.0000      -0.158653        -4.3172
  87   1.0000      -0.156233        -4.2513
  88   1.0000      -0.156185        -4.2500
  89   1.0000      -0.146929        -3.9981
  90   1.0000      -0.146870        -3.9965
  91   1.0000      -0.135095        -3.6761
  92   1.0000      -0.119904        -3.2628
  93   1.0000      -0.119877        -3.2620
  94   1.0000      -0.095617        -2.6019
  95   1.0000      -0.095573        -2.6007
  96   1.0000      -0.092617        -2.5202
  97   1.0000      -0.077023        -2.0959
  98   1.0000      -0.059124        -1.6089
  99   1.0000      -0.056862        -1.5473
 100   1.0000      -0.056509        -1.5377
 101   1.0000       0.002086         0.0568
 102   1.0000       0.047477         1.2919
 103   1.0000       0.047491         1.2923
 104   0.0000       0.096970         2.6387
 105   0.0000       0.113776         3.0960
 106   0.0000       0.116254         3.1634
 107   0.0000       0.117319         3.1924
 108   0.0000       0.124694         3.3931

                 SPIN DOWN ORBITALS
  NO   OCC          E(Eh)            E(eV)
   0   1.0000     -13.855721      -377.0333
   1   1.0000      -9.801408      -266.7099
   2   1.0000      -9.801098      -266.7014
   3   1.0000      -9.801057      -266.7003
   4   1.0000      -9.763149      -265.6688
   5   1.0000      -9.762957      -265.6636
   6   1.0000      -9.762894      -265.6619
   7   1.0000      -9.762856      -265.6608
   8   1.0000      -9.762799      -265.6593
   9   1.0000      -9.762769      -265.6585
  10   1.0000      -9.755974      -265.4735
  11   1.0000      -9.755933      -265.4724
  12   1.0000      -9.755876      -265.4709
  13   1.0000      -9.749081      -265.2860
  14   1.0000      -9.748987      -265.2834
  15   1.0000      -9.748622      -265.2735
  16   1.0000      -9.748394      -265.2673
  17   1.0000      -9.748388      -265.2671
  18   1.0000      -9.747882      -265.2534
  19   1.0000      -9.739833      -265.0343
  20   1.0000      -9.739476      -265.0246
  21   1.0000      -9.738897      -265.0088
  22   1.0000      -9.735389      -264.9134
  23   1.0000      -9.735271      -264.9102
  24   1.0000      -9.735178      -264.9077
  25   1.0000      -9.725976      -264.6573
  26   1.0000      -9.725475      -264.6436
  27   1.0000      -9.725464      -264.6433
  28   1.0000      -0.729101       -19.8398
  29   1.0000      -0.664410       -18.0795
  30   1.0000      -0.650483       -17.7005
  31   1.0000      -0.650372       -17.6975
  32   1.0000      -0.608894       -16.5688
  33   1.0000      -0.597714       -16.2646
  34   1.0000      -0.597567       -16.2606
  35   1.0000      -0.579719       -15.7750
  36   1.0000      -0.579575       -15.7710
  37   1.0000      -0.545173       -14.8349
  38   1.0000      -0.520843       -14.1729
  39   1.0000      -0.520789       -14.1714
  40   1.0000      -0.518275       -14.1030
  41   1.0000      -0.512673       -13.9505
  42   1.0000      -0.512517       -13.9463
  43   1.0000      -0.495601       -13.4860
  44   1.0000      -0.444043       -12.0830
  45   1.0000      -0.443973       -12.0811
  46   1.0000      -0.423684       -11.5290
  47   1.0000      -0.404551       -11.0084
  48   1.0000      -0.404504       -11.0071
  49   1.0000      -0.399161       -10.8617
  50   1.0000      -0.395469       -10.7613
  51   1.0000      -0.381087       -10.3699
  52   1.0000      -0.380936       -10.3658
  53   1.0000      -0.357237        -9.7209
  54   1.0000      -0.356416        -9.6986
  55   1.0000      -0.356278        -9.6948
  56   1.0000      -0.341549        -9.2940
  57   1.0000      -0.310408        -8.4466
  58   1.0000      -0.307455        -8.3663
  59   1.0000      -0.307344        -8.3633
  60   1.0000      -0.297573        -8.0974
  61   1.0000      -0.297464        -8.0944
  62   1.0000      -0.280729        -7.6390
  63   1.0000      -0.277388        -7.5481
  64   1.0000      -0.277296        -7.5456
  65   1.0000      -0.273888        -7.4529
  66   1.0000      -0.273883        -7.4527
  67   1.0000      -0.240918        -6.5557
  68   1.0000      -0.240801        -6.5525
  69   1.0000      -0.236304        -6.4302
  70   1.0000      -0.228799        -6.2259
  71   1.0000      -0.225350        -6.1321
  72   1.0000      -0.224751        -6.1158
  73   1.0000      -0.224696        -6.1143
  74   1.0000      -0.212054        -5.7703
  75   1.0000      -0.211988        -5.7685
  76   1.0000      -0.209851        -5.7103
  77   1.0000      -0.195760        -5.3269
  78   1.0000      -0.187669        -5.1067
  79   1.0000      -0.187641        -5.1060
  80   1.0000      -0.178331        -4.8526
  81   1.0000      -0.178325        -4.8525
  82   1.0000      -0.171013        -4.6535
  83   1.0000      -0.165978        -4.5165
  84   1.0000      -0.165946        -4.5156
  85   1.0000      -0.159858        -4.3500
  86   1.0000      -0.156045        -4.2462
  87   1.0000      -0.154800        -4.2123
  88   1.0000      -0.154751        -4.2110
  89   1.0000      -0.144795        -3.9401
  90   1.0000      -0.144734        -3.9384
  91   1.0000      -0.131998        -3.5919
  92   1.0000      -0.117080        -3.1859
  93   1.0000      -0.117057        -3.1853
  94   1.0000      -0.093241        -2.5372
  95   1.0000      -0.093198        -2.5360
  96   1.0000      -0.090766        -2.4699
  97   1.0000      -0.060821        -1.6550
  98   1.0000      -0.058623        -1.5952
  99   1.0000      -0.056465        -1.5365
 100   1.0000      -0.056110        -1.5268
 101   1.0000       0.023517         0.6399
 102   0.0000       0.083393         2.2692
 103   0.0000       0.083618         2.2754
 104   0.0000       0.097827         2.6620
 105   0.0000       0.117809         3.2058
 106   0.0000       0.119379         3.2485

MULLIKEN ATOMIC CHARGES AND SPIN POPULATIONS
--------------------------------------------
   0 C :    0.932183    0.346426
   1 C :   -0.328350    0.003786
   2 C :   -0.351604   -0.028058
   3 C :   -0.378105   -0.032093
   4 C :   -0.379211   -0.032067
   5 C :   -0.342795   -0.014101
   6 C :   -0.352258   -0.014028
   7 C :   -0.368741   -0.014049
   8 C :   -0.363332   -0.014011
   9 C :   -0.348124   -0.013864
  10 C :   -0.348482   -0.013979
  11 C :   -0.148655    0.009685
  12 C :   -0.148607    0.009691
  13 C :   -0.176805    0.009296
  14 C :   -0.369284    0.040169
  15 C :   -0.369350    0.040073
  16 C :   -0.333185    0.040203
  17 C :   -0.322421    0.101536
  18 C :   -0.308360    0.103677
  19 C :   -0.307476    0.099141
  20 C :   -0.307986    0.099178
  21 C :   -0.322539    0.101510
  22 C :   -0.307375    0.103713
  23 C :    0.931958    0.346537
  24 C :    0.885749    0.341731
  25 C :   -0.337755    0.006969
  26 C :   -0.329340    0.003818
  27 N :    0.380565   -0.017463
  28 H :    0.149383    0.000746
  29 H :    0.076074   -0.000595
  30 H :    0.150886   -0.001400
  31 H :    0.066088   -0.002071
  32 H :    0.077045   -0.001463
  33 H :    0.162688   -0.001292
  34 H :    0.164805   -0.001300
  35 H :    0.076786   -0.001457
  36 H :    0.146586   -0.000492
  37 H :    0.071769   -0.000815
  38 H :    0.067882   -0.000439
  39 H :    0.154737   -0.000829
  40 H :    0.082955   -0.000614
  41 H :    0.161814   -0.001439
  42 H :    0.155093   -0.001396
  43 H :    0.083022   -0.000626
  44 H :    0.072076   -0.000824
  45 H :    0.153224   -0.000554
  46 H :    0.147662   -0.000735
  47 H :    0.068268   -0.000449
  48 H :    0.081934    0.000227
  49 H :    0.081980    0.000224
  50 H :    0.093228    0.000290
  51 H :    0.059783    0.042981
  52 H :    0.059769    0.042981
  53 H :    0.050764    0.041848
  54 H :    0.056096    0.045990
  55 H :    0.057382    0.046486
  56 H :    0.060723    0.045586
  57 H :    0.060798    0.045596
  58 H :    0.056158    0.045996
  59 H :    0.057201    0.046546
  60 H :    0.076025   -0.000735
  61 H :    0.152380    0.000462
  62 H :    0.150571    0.000741
  63 H :    0.076050   -0.000603
Sum of atomic charges         :   -1.0000000

LOEWDIN ATOMIC CHARGES AND SPIN POPULATIONS
-------------------------------------------
   0 C :   -0.103443    0.457968
   1 C :   -0.015873    0.010415
   2 C :   -0.020125    0.009405
   3 C :   -0.022444    0.008726
   4 C :   -0.022119    0.008712
   5 C :   -0.011647    0.009975
   6 C :   -0.009902    0.010120
   7 C :   -0.012391    0.009795
   8 C :   -0.012007    0.009834
   9 C :   -0.012187    0.010008
  10 C :   -0.009602    0.010164
  11 C :   -0.070640    0.001315
  12 C :   -0.070651    0.001315
  13 C :   -0.072817    0.001214
  14 C :   -0.109693    0.026557
  15 C :   -0.109646    0.026545
  16 C :   -0.106620    0.025885
  17 C :   -0.105688    0.037377
  18 C :   -0.106122    0.037636
  19 C :   -0.105138    0.036382
  20 C :   -0.105107    0.036414
  21 C :   -0.105804    0.037376
  22 C :   -0.106005    0.037678
  23 C :   -0.103485    0.458038
  24 C :   -0.104769    0.456631
  25 C :   -0.015629    0.011158
  26 C :   -0.016387    0.010424
  27 N :   -0.011330    0.007037
  28 H :   -0.010947    0.000550
  29 H :    0.025343   -0.000348
  30 H :   -0.010221    0.000434
  31 H :    0.023659   -0.000310
  32 H :    0.024869   -0.000273
  33 H :   -0.008594    0.000443
  34 H :   -0.009435    0.000449
  35 H :    0.024677   -0.000279
  36 H :   -0.013818    0.000518
  37 H :    0.029521    0.000230
  38 H :    0.028435    0.000245
  39 H :   -0.016212    0.000526
  40 H :    0.029927    0.000241
  41 H :   -0.015697    0.000526
  42 H :   -0.014036    0.000519
  43 H :    0.030251    0.000244
  44 H :    0.029248    0.000228
  45 H :   -0.015486    0.000525
  46 H :   -0.014528    0.000519
  47 H :    0.028747    0.000250
  48 H :    0.033080    0.000183
  49 H :    0.033092    0.000183
  50 H :    0.033994    0.000174
  51 H :    0.044036    0.019525
  52 H :    0.044038    0.019523
  53 H :    0.043589    0.019281
  54 H :    0.045013    0.021929
  55 H :    0.045028    0.022015
  56 H :    0.045620    0.021768
  57 H :    0.045639    0.021762
  58 H :    0.045018    0.021924
  59 H :    0.045060    0.022017
  60 H :    0.025085   -0.000364
  61 H :   -0.010970    0.000536
  62 H :   -0.011099    0.000551
  63 H :    0.025341   -0.000349

  Mayer bond orders larger than 0.100000
B(  0-C , 15-C ) :   1.0654 B(  0-C , 20-C ) :   1.0621 B(  0-C , 21-C ) :   1.0427
B(  0-C , 23-C ) :   0.1979 B(  0-C , 24-C ) :   0.1939 B(  0-C , 27-N ) :   0.1574
B(  1-C ,  4-C ) :   0.1511 B(  1-C , 15-C ) :   0.9581 B(  1-C , 16-C ) :   0.9597
B(  1-C , 28-H ) :   0.7729 B(  1-C , 29-H ) :   0.9789 B(  2-C , 17-C ) :   0.9813
B(  2-C , 21-C ) :   0.9813 B(  2-C , 25-C ) :   0.1366 B(  2-C , 30-H ) :   0.7795
B(  2-C , 31-H ) :   0.9856 B(  3-C , 19-C ) :   0.9752 B(  3-C , 22-C ) :   0.9833
B(  3-C , 26-C ) :   0.1507 B(  3-C , 32-H ) :   0.9749 B(  3-C , 33-H ) :   0.7720
B(  4-C , 18-C ) :   0.9832 B(  4-C , 20-C ) :   0.9751 B(  4-C , 34-H ) :   0.7703
B(  4-C , 35-H ) :   0.9750 B(  5-C ,  7-C ) :   0.1530 B(  5-C , 13-C ) :   0.9557
B(  5-C , 17-C ) :   0.9641 B(  5-C , 36-H ) :   0.7676 B(  5-C , 37-H ) :   0.9735
B(  6-C , 10-C ) :   0.1544 B(  6-C , 11-C ) :   0.9382 B(  6-C , 18-C ) :   0.9636
B(  6-C , 38-H ) :   0.9812 B(  6-C , 39-H ) :   0.7718 B(  7-C , 12-C ) :   0.9607
B(  7-C , 19-C ) :   0.9612 B(  7-C , 40-H ) :   0.9738 B(  7-C , 41-H ) :   0.7655
B(  8-C ,  9-C ) :   0.1528 B(  8-C , 11-C ) :   0.9610 B(  8-C , 20-C ) :   0.9617
B(  8-C , 42-H ) :   0.7646 B(  8-C , 43-H ) :   0.9735 B(  9-C , 13-C ) :   0.9556
B(  9-C , 21-C ) :   0.9632 B(  9-C , 44-H ) :   0.9738 B(  9-C , 45-H ) :   0.7684
B( 10-C , 12-C ) :   0.9389 B( 10-C , 22-C ) :   0.9640 B( 10-C , 46-H ) :   0.7708
B( 10-C , 47-H ) :   0.9808 B( 11-C , 12-C ) :   0.1071 B( 11-C , 13-C ) :   0.1058
B( 11-C , 27-N ) :   1.0998 B( 11-C , 48-H ) :   1.0162 B( 12-C , 13-C ) :   0.1058
B( 12-C , 27-N ) :   1.0999 B( 12-C , 49-H ) :   1.0162 B( 13-C , 27-N ) :   1.1167
B( 13-C , 50-H ) :   1.0094 B( 14-C , 17-C ) :   0.2266 B( 14-C , 19-C ) :   0.2238
B( 14-C , 23-C ) :   1.0654 B( 14-C , 25-C ) :   0.9641 B( 14-C , 26-C ) :   0.9582
B( 14-C , 51-H ) :   1.0144 B( 15-C , 20-C ) :   0.2235 B( 15-C , 21-C ) :   0.2266
B( 15-C , 25-C ) :   0.9642 B( 15-C , 52-H ) :   1.0144 B( 16-C , 18-C ) :   0.2230
B( 16-C , 22-C ) :   0.2229 B( 16-C , 24-C ) :   1.0626 B( 16-C , 26-C ) :   0.9597
B( 16-C , 53-H ) :   1.0207 B( 17-C , 19-C ) :   0.2119 B( 17-C , 23-C ) :   1.0431
B( 17-C , 54-H ) :   1.0119 B( 18-C , 22-C ) :   0.2184 B( 18-C , 24-C ) :   1.0609
B( 18-C , 55-H ) :   1.0081 B( 19-C , 23-C ) :   1.0618 B( 19-C , 56-H ) :   1.0005
B( 20-C , 21-C ) :   0.2121 B( 20-C , 57-H ) :   1.0004 B( 21-C , 58-H ) :   1.0118
B( 22-C , 24-C ) :   1.0615 B( 22-C , 59-H ) :   1.0081 B( 23-C , 24-C ) :   0.1941
B( 23-C , 27-N ) :   0.1573 B( 24-C , 27-N ) :   0.1598 B( 25-C , 60-H ) :   0.9876
B( 25-C , 61-H ) :   0.7789 B( 26-C , 62-H ) :   0.7752 B( 26-C , 63-H ) :   0.9790
B( 28-H , 34-H ) :   0.2268 B( 30-H , 61-H ) :   0.2284 B( 33-H , 62-H ) :   0.2246
B( 36-H , 41-H ) :   0.2417 B( 39-H , 46-H ) :   0.2413 B( 42-H , 45-H ) :   0.2419

FINAL SINGLE POINT ENERGY     -1103.168035885366

DIPOLE MOMENT
-------------
                                X             Y             Z
Electronic contribution:      0.00914       0.00211       1.06758
Nuclear contribution   :      0.00180      -0.00336      -0.32886
                        -----------------------------------------
Total Dipole Moment    :      0.01094      -0.00125       0.73872
                        -----------------------------------------
Magnitude (a.u.)       :      0.73880
Magnitude (Debye)      :      1.87787

Rotational constants in cm-1:     0.009246     0.009141     0.009141
Rotational constants in MHz :   277.183097   274.048600   274.045280

                             ****ORCA TERMINATED NORMALLY****
TOTAL RUN TIME: 0 days 0 hours 4 minutes 42 seconds 34 msec
