                         Program Version 4.2.1 -  RELEASE  -
|  1> # Use EPR-II is a special basis set for epr, autoaux creates a large auxiliary basis
|  2> !PBE EPR-II AUTOAUX RIJCOSX
|  3>
|  4> # use original (unoptimized) cluster xyz
|  5> *xyzfile -1 3 nv.xyz
|  6>
|  7> # Parallelization
|  8> %PAL NPROCS 72 END
|  9>
| 10> # ZFS calculation
| 11> %EPRNMR DTENSOR SSANDSO
| 12>     DSS     UNO
| 13>     DSOC    CP
| 14> END
| 15>
| 16>                          ****END OF INPUT****

CARTESIAN COORDINATES (ANGSTROEM)
---------------------------------
  C      1.499396    0.349580   -2.249811
  C      0.995104   -1.062372   -4.258023
  C      0.842930    2.778398   -2.199697
  C     -2.827536   -0.659226   -2.199804
  C      1.984763   -2.119129   -2.199700
  C     -0.575014    2.434405   -0.144983
  C      0.560891   -2.437697   -0.144986
  C     -2.391549    0.733106   -0.145035
  C      2.395768   -0.719219   -0.144933
  C      1.830668    1.704595   -0.144931
  C     -1.820743   -1.715183   -0.145037
  C      0.971954   -1.037802    0.395617
  C     -1.384752   -0.322849    0.395566
  C      0.412769    1.360643    0.395618
  C     -0.997382    1.065058   -3.737621
  C      1.421170    0.331343   -3.737569
  C     -0.423523   -1.396328   -3.737623
  C     -0.574102    2.433770   -1.693673
  C      0.561428   -2.436721   -1.693676
  C     -2.390926    0.732200   -1.693726
  C      2.394808   -0.719645   -1.693623
  C      1.829618    1.704555   -1.693621
  C     -1.820586   -1.714092   -1.693727
  C     -1.052349    1.123701   -2.249865
  C     -0.446887   -1.473237   -2.249867
  C      0.422664    1.392927   -4.258021
  C     -1.417467   -0.330472   -4.258075
  N      0.000000    0.000000    0.000000
  H      1.686255   -1.800348   -3.907906
  H      0.990229   -1.057132   -5.328003
  H      0.848051    2.795203   -3.269544
  H      1.134751    3.740357   -1.833101
  H     -3.804182   -0.886927   -1.826663
  H     -2.851438   -0.664797   -3.269519
  H      1.996788   -2.131935   -3.269548
  H      2.671922   -2.852845   -1.833106
  H     -1.561395    2.216095    0.207581
  H     -0.266480    3.398040    0.203028
  H      1.256165   -3.170508    0.207839
  H     -0.424039   -2.669813    0.202756
  H     -3.373830    0.497375    0.207753
  H     -2.100112    1.702128    0.202744
  H      2.699886    0.244155    0.207668
  H      3.076022   -1.468246    0.203076
  H      2.117650    2.673130    0.207895
  H      2.524136    0.967681    0.202848
  H     -1.138506   -2.460254    0.207562
  H     -2.809557   -1.929798    0.202936
  H      0.980469   -1.046926    1.465539
  H     -1.396943   -0.325693    1.465488
  H      0.416371    1.372590    1.465541
  H     -1.684313    1.798529   -4.105093
  H      2.399851    0.559519   -4.105005
  H     -0.715247   -2.357968   -4.105096
  H     -1.260811    3.177813   -2.039696
  H      0.274578   -3.407745   -2.039701
  H     -3.088421    1.466141   -2.039749
  H      3.382533   -0.496948   -2.039611
  H      2.813988    1.941644   -2.039609
  H     -2.121578   -2.680825   -2.039752
  H      0.420675    1.386292   -5.328007
  H      0.716162    2.360411   -3.907684
  H     -2.402159   -0.560049   -3.907994
  H     -1.410460   -0.328837   -5.328055

 Total Charge           Charge          ....   -1
 Multiplicity           Mult            ....    3
 Number of Electrons    NEL             ....  206
 Basis Dimension        Dim             ....  728

ORBITAL ENERGIES
----------------
                 SPIN UP ORBITALS
  NO   OCC          E(Eh)            E(eV)
   0   1.0000     -13.855805      -377.0356
   1   1.0000      -9.801589      -266.7148
   2   1.0000      -9.801301      -266.7070
   3   1.0000      -9.801147      -266.7028
   4   1.0000      -9.762997      -265.6646
   5   1.0000      -9.762892      -265.6618
   6   1.0000      -9.762865      -265.6611
   7   1.0000      -9.762799      -265.6593
   8   1.0000      -9.762758      -265.6582
   9   1.0000      -9.762737      -265.6576
  10   1.0000      -9.755824      -265.4695
  11   1.0000      -9.755824      -265.4695
  12   1.0000      -9.755464      -265.4597
  13   1.0000      -9.749116      -265.2869
  14   1.0000      -9.749030      -265.2846
  15   1.0000      -9.748968      -265.2829
  16   1.0000      -9.748453      -265.2689
  17   1.0000      -9.748430      -265.2683
  18   1.0000      -9.748316      -265.2652
  19   1.0000      -9.739848      -265.0347
  20   1.0000      -9.739725      -265.0314
  21   1.0000      -9.739648      -265.0293
  22   1.0000      -9.735998      -264.9300
  23   1.0000      -9.735400      -264.9137
  24   1.0000      -9.735280      -264.9104
  25   1.0000      -9.734976      -264.9022
  26   1.0000      -9.734479      -264.8887
  27   1.0000      -9.734320      -264.8843
  28   1.0000      -0.729749       -19.8575
  29   1.0000      -0.667578       -18.1657
  30   1.0000      -0.652432       -17.7536
  31   1.0000      -0.652318       -17.7505
  32   1.0000      -0.609404       -16.5827
  33   1.0000      -0.598260       -16.2795
  34   1.0000      -0.598002       -16.2725
  35   1.0000      -0.582536       -15.8516
  36   1.0000      -0.582430       -15.8487
  37   1.0000      -0.545805       -14.8521
  38   1.0000      -0.521639       -14.1945
  39   1.0000      -0.521580       -14.1929
  40   1.0000      -0.519010       -14.1230
  41   1.0000      -0.516010       -14.0413
  42   1.0000      -0.515647       -14.0315
  43   1.0000      -0.501970       -13.6593
  44   1.0000      -0.444706       -12.1011
  45   1.0000      -0.444610       -12.0984
  46   1.0000      -0.423896       -11.5348
  47   1.0000      -0.405293       -11.0286
  48   1.0000      -0.405283       -11.0283
  49   1.0000      -0.400340       -10.8938
  50   1.0000      -0.397621       -10.8198
  51   1.0000      -0.384109       -10.4521
  52   1.0000      -0.384008       -10.4494
  53   1.0000      -0.358471        -9.7545
  54   1.0000      -0.358068        -9.7435
  55   1.0000      -0.357854        -9.7377
  56   1.0000      -0.346539        -9.4298
  57   1.0000      -0.312920        -8.5150
  58   1.0000      -0.309049        -8.4096
  59   1.0000      -0.308894        -8.4054
  60   1.0000      -0.301333        -8.1997
  61   1.0000      -0.301246        -8.1973
  62   1.0000      -0.282115        -7.6767
  63   1.0000      -0.279293        -7.5999
  64   1.0000      -0.279242        -7.5986
  65   1.0000      -0.275752        -7.5036
  66   1.0000      -0.275709        -7.5024
  67   1.0000      -0.242720        -6.6048
  68   1.0000      -0.242667        -6.6033
  69   1.0000      -0.238293        -6.4843
  70   1.0000      -0.231142        -6.2897
  71   1.0000      -0.228494        -6.2176
  72   1.0000      -0.226375        -6.1600
  73   1.0000      -0.226284        -6.1575
  74   1.0000      -0.212529        -5.7832
  75   1.0000      -0.212431        -5.7806
  76   1.0000      -0.210182        -5.7193
  77   1.0000      -0.197074        -5.3627
  78   1.0000      -0.190658        -5.1881
  79   1.0000      -0.190626        -5.1872
  80   1.0000      -0.179337        -4.8800
  81   1.0000      -0.179301        -4.8790
  82   1.0000      -0.171498        -4.6667
  83   1.0000      -0.166820        -4.5394
  84   1.0000      -0.166786        -4.5385
  85   1.0000      -0.161139        -4.3848
  86   1.0000      -0.158722        -4.3190
  87   1.0000      -0.156239        -4.2515
  88   1.0000      -0.156182        -4.2499
  89   1.0000      -0.146990        -3.9998
  90   1.0000      -0.146897        -3.9973
  91   1.0000      -0.135140        -3.6774
  92   1.0000      -0.119953        -3.2641
  93   1.0000      -0.119864        -3.2617
  94   1.0000      -0.095576        -2.6008
  95   1.0000      -0.095546        -2.5999
  96   1.0000      -0.092651        -2.5212
  97   1.0000      -0.077133        -2.0989
  98   1.0000      -0.059048        -1.6068
  99   1.0000      -0.056846        -1.5468
 100   1.0000      -0.056572        -1.5394
 101   1.0000       0.001966         0.0535
 102   1.0000       0.047237         1.2854
 103   1.0000       0.047620         1.2958
 104   0.0000       0.096847         2.6353
 105   0.0000       0.113757         3.0955
 106   0.0000       0.116274         3.1640
 107   0.0000       0.117200         3.1892
 108   0.0000       0.124436         3.3861

                 SPIN DOWN ORBITALS
  NO   OCC          E(Eh)            E(eV)
   0   1.0000     -13.855752      -377.0342
   1   1.0000      -9.801544      -266.7136
   2   1.0000      -9.801255      -266.7057
   3   1.0000      -9.801100      -266.7015
   4   1.0000      -9.763230      -265.6710
   5   1.0000      -9.763126      -265.6682
   6   1.0000      -9.763097      -265.6674
   7   1.0000      -9.763029      -265.6655
   8   1.0000      -9.762987      -265.6644
   9   1.0000      -9.762971      -265.6639
  10   1.0000      -9.756224      -265.4804
  11   1.0000      -9.756223      -265.4803
  12   1.0000      -9.755862      -265.4705
  13   1.0000      -9.749009      -265.2840
  14   1.0000      -9.748923      -265.2817
  15   1.0000      -9.748861      -265.2800
  16   1.0000      -9.748346      -265.2660
  17   1.0000      -9.748323      -265.2654
  18   1.0000      -9.748209      -265.2622
  19   1.0000      -9.739692      -265.0305
  20   1.0000      -9.739570      -265.0272
  21   1.0000      -9.739492      -265.0250
  22   1.0000      -9.735804      -264.9247
  23   1.0000      -9.735205      -264.9084
  24   1.0000      -9.735086      -264.9051
  25   1.0000      -9.726348      -264.6674
  26   1.0000      -9.725748      -264.6511
  27   1.0000      -9.725578      -264.6464
  28   1.0000      -0.729128       -19.8406
  29   1.0000      -0.664584       -18.0843
  30   1.0000      -0.650563       -17.7027
  31   1.0000      -0.650441       -17.6994
  32   1.0000      -0.608941       -16.5701
  33   1.0000      -0.597787       -16.2666
  34   1.0000      -0.597526       -16.2595
  35   1.0000      -0.579814       -15.7776
  36   1.0000      -0.579695       -15.7743
  37   1.0000      -0.545198       -14.8356
  38   1.0000      -0.520926       -14.1751
  39   1.0000      -0.520845       -14.1729
  40   1.0000      -0.518334       -14.1046
  41   1.0000      -0.512783       -13.9535
  42   1.0000      -0.512416       -13.9436
  43   1.0000      -0.495618       -13.4865
  44   1.0000      -0.444069       -12.0837
  45   1.0000      -0.443974       -12.0812
  46   1.0000      -0.423683       -11.5290
  47   1.0000      -0.404529       -11.0078
  48   1.0000      -0.404522       -11.0076
  49   1.0000      -0.399256       -10.8643
  50   1.0000      -0.395617       -10.7653
  51   1.0000      -0.381125       -10.3709
  52   1.0000      -0.381020       -10.3681
  53   1.0000      -0.357265        -9.7217
  54   1.0000      -0.356524        -9.7015
  55   1.0000      -0.356293        -9.6952
  56   1.0000      -0.341662        -9.2971
  57   1.0000      -0.310386        -8.4460
  58   1.0000      -0.307514        -8.3679
  59   1.0000      -0.307358        -8.3636
  60   1.0000      -0.297599        -8.0981
  61   1.0000      -0.297487        -8.0950
  62   1.0000      -0.280732        -7.6391
  63   1.0000      -0.277401        -7.5485
  64   1.0000      -0.277351        -7.5471
  65   1.0000      -0.274051        -7.4573
  66   1.0000      -0.273994        -7.4558
  67   1.0000      -0.240981        -6.5574
  68   1.0000      -0.240917        -6.5557
  69   1.0000      -0.236336        -6.4310
  70   1.0000      -0.228937        -6.2297
  71   1.0000      -0.225401        -6.1335
  72   1.0000      -0.224853        -6.1186
  73   1.0000      -0.224759        -6.1160
  74   1.0000      -0.212148        -5.7728
  75   1.0000      -0.212046        -5.7701
  76   1.0000      -0.209938        -5.7127
  77   1.0000      -0.195816        -5.3284
  78   1.0000      -0.187699        -5.1075
  79   1.0000      -0.187678        -5.1070
  80   1.0000      -0.178351        -4.8532
  81   1.0000      -0.178319        -4.8523
  82   1.0000      -0.171138        -4.6569
  83   1.0000      -0.166045        -4.5183
  84   1.0000      -0.166010        -4.5174
  85   1.0000      -0.159833        -4.3493
  86   1.0000      -0.156115        -4.2481
  87   1.0000      -0.154808        -4.2125
  88   1.0000      -0.154751        -4.2110
  89   1.0000      -0.144852        -3.9416
  90   1.0000      -0.144759        -3.9391
  91   1.0000      -0.132046        -3.5931
  92   1.0000      -0.117139        -3.1875
  93   1.0000      -0.117036        -3.1847
  94   1.0000      -0.093195        -2.5360
  95   1.0000      -0.093182        -2.5356
  96   1.0000      -0.090805        -2.4709
  97   1.0000      -0.060934        -1.6581
  98   1.0000      -0.058547        -1.5931
  99   1.0000      -0.056447        -1.5360
 100   1.0000      -0.056174        -1.5286
 101   1.0000       0.023348         0.6353
 102   0.0000       0.082956         2.2573
 103   0.0000       0.083906         2.2832
 104   0.0000       0.097709         2.6588
 105   0.0000       0.117900         3.2082
 106   0.0000       0.119061         3.2398

MULLIKEN ATOMIC CHARGES AND SPIN POPULATIONS
--------------------------------------------
   0 C :    0.887538    0.351182
   1 C :   -0.370215    0.005145
   2 C :   -0.366164   -0.032354
   3 C :   -0.361881   -0.031493
   4 C :   -0.384139   -0.028971
   5 C :   -0.326760   -0.014921
   6 C :   -0.342077   -0.014981
   7 C :   -0.337650   -0.014992
   8 C :   -0.333952   -0.015542
   9 C :   -0.357968   -0.011196
  10 C :   -0.356648   -0.011131
  11 C :   -0.173323    0.009677
  12 C :   -0.169027    0.009218
  13 C :   -0.166286    0.009161
  14 C :   -0.357431    0.048564
  15 C :   -0.331226    0.038492
  16 C :   -0.324501    0.036258
  17 C :   -0.328992    0.108733
  18 C :   -0.309869    0.100299
  19 C :   -0.330357    0.110164
  20 C :   -0.315846    0.102145
  21 C :   -0.288712    0.095879
  22 C :   -0.284901    0.094155
  23 C :    0.911671    0.323475
  24 C :    0.889020    0.354587
  25 C :   -0.324432    0.003801
  26 C :   -0.335076    0.004836
  27 N :    0.389855   -0.017100
  28 H :    0.162063    0.000582
  29 H :    0.083905   -0.000641
  30 H :    0.161916   -0.001184
  31 H :    0.069086   -0.001393
  32 H :    0.069168   -0.001558
  33 H :    0.157059   -0.001188
  34 H :    0.160625   -0.001489
  35 H :    0.078821   -0.002034
  36 H :    0.143817   -0.000759
  37 H :    0.067557   -0.000432
  38 H :    0.073125   -0.000833
  39 H :    0.150781   -0.000866
  40 H :    0.069290   -0.000491
  41 H :    0.151284   -0.000798
  42 H :    0.142235   -0.000633
  43 H :    0.071016   -0.000700
  44 H :    0.075796   -0.000661
  45 H :    0.159243   -0.001419
  46 H :    0.154014   -0.001365
  47 H :    0.078790   -0.000791
  48 H :    0.091687    0.000228
  49 H :    0.087708    0.000252
  50 H :    0.085540    0.000256
  51 H :    0.053468    0.042365
  52 H :    0.055348    0.042383
  53 H :    0.054490    0.042981
  54 H :    0.061259    0.045543
  55 H :    0.054361    0.046694
  56 H :    0.060026    0.045930
  57 H :    0.057444    0.046462
  58 H :    0.054029    0.046059
  59 H :    0.050905    0.046461
  60 H :    0.074286   -0.000616
  61 H :    0.151519    0.000639
  62 H :    0.152359    0.000558
  63 H :    0.075332   -0.000635
Sum of atomic charges         :   -1.0000000

LOEWDIN ATOMIC CHARGES AND SPIN POPULATIONS
-------------------------------------------
   0 C :   -0.104541    0.459011
   1 C :   -0.018424    0.010757
   2 C :   -0.021110    0.008726
   3 C :   -0.021087    0.008886
   4 C :   -0.023014    0.009156
   5 C :   -0.009276    0.010066
   6 C :   -0.011641    0.009999
   7 C :   -0.010195    0.010108
   8 C :   -0.010486    0.009961
   9 C :   -0.011309    0.010007
  10 C :   -0.011947    0.010076
  11 C :   -0.072391    0.001259
  12 C :   -0.071978    0.001265
  13 C :   -0.071443    0.001286
  14 C :   -0.108918    0.027154
  15 C :   -0.107920    0.026154
  16 C :   -0.107910    0.026079
  17 C :   -0.106318    0.037427
  18 C :   -0.105928    0.037457
  19 C :   -0.106768    0.037869
  20 C :   -0.106296    0.037657
  21 C :   -0.104444    0.036342
  22 C :   -0.103956    0.036320
  23 C :   -0.104364    0.453385
  24 C :   -0.104357    0.459386
  25 C :   -0.015176    0.010568
  26 C :   -0.016078    0.010726
  27 N :   -0.011243    0.007028
  28 H :   -0.010143    0.000537
  29 H :    0.025927   -0.000361
  30 H :   -0.009794    0.000450
  31 H :    0.024203   -0.000289
  32 H :    0.024354   -0.000290
  33 H :   -0.009100    0.000442
  34 H :   -0.009112    0.000439
  35 H :    0.024969   -0.000301
  36 H :   -0.014716    0.000520
  37 H :    0.028905    0.000257
  38 H :    0.029294    0.000231
  39 H :   -0.015568    0.000524
  40 H :    0.028678    0.000255
  41 H :   -0.016128    0.000527
  42 H :   -0.014036    0.000512
  43 H :    0.029297    0.000235
  44 H :    0.029249    0.000232
  45 H :   -0.015979    0.000526
  46 H :   -0.014017    0.000521
  47 H :    0.029919    0.000234
  48 H :    0.033793    0.000170
  49 H :    0.033629    0.000181
  50 H :    0.033424    0.000183
  51 H :    0.043782    0.019273
  52 H :    0.043984    0.019478
  53 H :    0.043804    0.019561
  54 H :    0.045666    0.021716
  55 H :    0.045044    0.022042
  56 H :    0.045517    0.021789
  57 H :    0.045255    0.022018
  58 H :    0.045218    0.021926
  59 H :    0.044940    0.021937
  60 H :    0.025141   -0.000343
  61 H :   -0.010970    0.000550
  62 H :   -0.011070    0.000547
  63 H :    0.025160   -0.000348

  Mayer bond orders larger than 0.100000
B(  0-C , 15-C ) :   1.0761 B(  0-C , 20-C ) :   1.0624 B(  0-C , 21-C ) :   1.0673
B(  0-C , 23-C ) :   0.1943 B(  0-C , 24-C ) :   0.1946 B(  0-C , 27-N ) :   0.1567
B(  1-C ,  4-C ) :   0.1490 B(  1-C , 15-C ) :   0.9665 B(  1-C , 16-C ) :   0.9650
B(  1-C , 28-H ) :   0.7745 B(  1-C , 29-H ) :   0.9809 B(  2-C , 17-C ) :   0.9789
B(  2-C , 21-C ) :   0.9826 B(  2-C , 25-C ) :   0.1517 B(  2-C , 30-H ) :   0.7709
B(  2-C , 31-H ) :   0.9749 B(  3-C , 19-C ) :   0.9789 B(  3-C , 22-C ) :   0.9822
B(  3-C , 26-C ) :   0.1476 B(  3-C , 32-H ) :   0.9777 B(  3-C , 33-H ) :   0.7753
B(  4-C , 18-C ) :   0.9836 B(  4-C , 20-C ) :   0.9855 B(  4-C , 34-H ) :   0.7754
B(  4-C , 35-H ) :   0.9808 B(  5-C ,  7-C ) :   0.1424 B(  5-C , 13-C ) :   0.9471
B(  5-C , 17-C ) :   0.9704 B(  5-C , 36-H ) :   0.7710 B(  5-C , 37-H ) :   0.9749
B(  6-C , 10-C ) :   0.1473 B(  6-C , 11-C ) :   0.9582 B(  6-C , 18-C ) :   0.9624
B(  6-C , 38-H ) :   0.9744 B(  6-C , 39-H ) :   0.7656 B(  7-C , 12-C ) :   0.9459
B(  7-C , 19-C ) :   0.9681 B(  7-C , 40-H ) :   0.9757 B(  7-C , 41-H ) :   0.7718
B(  8-C ,  9-C ) :   0.1454 B(  8-C , 11-C ) :   0.9550 B(  8-C , 20-C ) :   0.9636
B(  8-C , 42-H ) :   0.7661 B(  8-C , 43-H ) :   0.9748 B(  9-C , 13-C ) :   0.9579
B(  9-C , 21-C ) :   0.9693 B(  9-C , 44-H ) :   0.9773 B(  9-C , 45-H ) :   0.7662
B( 10-C , 12-C ) :   0.9606 B( 10-C , 22-C ) :   0.9697 B( 10-C , 46-H ) :   0.7630
B( 10-C , 47-H ) :   0.9744 B( 11-C , 12-C ) :   0.1074 B( 11-C , 13-C ) :   0.1081
B( 11-C , 27-N ) :   1.1042 B( 11-C , 48-H ) :   1.0093 B( 12-C , 13-C ) :   0.1085
B( 12-C , 27-N ) :   1.1060 B( 12-C , 49-H ) :   1.0135 B( 13-C , 27-N ) :   1.0985
B( 13-C , 50-H ) :   1.0160 B( 14-C , 17-C ) :   0.2289 B( 14-C , 19-C ) :   0.2289
B( 14-C , 23-C ) :   1.0526 B( 14-C , 25-C ) :   0.9601 B( 14-C , 26-C ) :   0.9611
B( 14-C , 51-H ) :   1.0306 B( 15-C , 20-C ) :   0.2183 B( 15-C , 21-C ) :   0.2119
B( 15-C , 25-C ) :   0.9573 B( 15-C , 52-H ) :   1.0118 B( 16-C , 18-C ) :   0.2163
B( 16-C , 22-C ) :   0.2113 B( 16-C , 24-C ) :   1.0818 B( 16-C , 26-C ) :   0.9572
B( 16-C , 53-H ) :   1.0073 B( 17-C , 19-C ) :   0.2212 B( 17-C , 23-C ) :   1.0526
B( 17-C , 54-H ) :   1.0129 B( 18-C , 22-C ) :   0.2125 B( 18-C , 24-C ) :   1.0672
B( 18-C , 55-H ) :   1.0021 B( 19-C , 23-C ) :   1.0506 B( 19-C , 56-H ) :   1.0153
B( 20-C , 21-C ) :   0.2128 B( 20-C , 57-H ) :   1.0045 B( 21-C , 58-H ) :   0.9966
B( 22-C , 24-C ) :   1.0655 B( 22-C , 59-H ) :   0.9970 B( 23-C , 24-C ) :   0.1972
B( 23-C , 27-N ) :   0.1637 B( 24-C , 27-N ) :   0.1544 B( 25-C , 60-H ) :   0.9804
B( 25-C , 61-H ) :   0.7716 B( 26-C , 62-H ) :   0.7767 B( 26-C , 63-H ) :   0.9828
B( 28-H , 34-H ) :   0.2249 B( 30-H , 61-H ) :   0.2265 B( 33-H , 62-H ) :   0.2239
B( 36-H , 41-H ) :   0.2438 B( 39-H , 46-H ) :   0.2462 B( 42-H , 45-H ) :   0.2459

FINAL SINGLE POINT ENERGY     -1103.168215708393

DIPOLE MOMENT
-------------
                                X             Y             Z
Electronic contribution:      0.00432       0.00418       1.06762
Nuclear contribution   :     -0.00374      -0.00075      -0.32886
                        -----------------------------------------
Total Dipole Moment    :      0.00058       0.00343       0.73876
                        -----------------------------------------
Magnitude (a.u.)       :      0.73876
Magnitude (Debye)      :      1.87779

Rotational constants in cm-1:     0.009246     0.009141     0.009141
Rotational constants in MHz :   277.183097   274.048600   274.045280

                             ****ORCA TERMINATED NORMALLY****
TOTAL RUN TIME: 0 days 0 hours 4 minutes 33 seconds 965 msec
