                         Program Version 4.2.1 -  RELEASE  -
|  1> # Use EPR-II is a special basis set for epr, autoaux creates a large auxiliary basis
|  2> !PBE EPR-II AUTOAUX RIJCOSX
|  3>
|  4> # use original (unoptimized) cluster xyz
|  5> *xyzfile -1 3 nv.xyz
|  6>
|  7> # Parallelization
|  8> %PAL NPROCS 72 END
|  9>
| 10> # ZFS calculation
| 11> %EPRNMR DTENSOR SSANDSO
| 12>     DSS     UNO
| 13>     DSOC    CP
| 14> END
| 15>
| 16>                          ****END OF INPUT****

CARTESIAN COORDINATES (ANGSTROEM)
---------------------------------
  C      0.813043    1.307423   -2.249811
  C      1.454855   -0.047565   -4.258023
  C     -1.368583    2.560665   -2.199697
  C     -1.533227   -2.465513   -2.199804
  C      2.901890   -0.095012   -2.199700
  C     -2.127981    1.314788   -0.144983
  C      2.120322   -1.327102   -0.144986
  C     -2.209464   -1.172697   -0.145035
  C      2.202629    1.185499   -0.144933
  C      0.089147    2.499808   -0.144931
  C     -0.074643   -2.500277   -0.145037
  C      1.421112   -0.046561    0.395617
  C     -0.750879   -1.207456    0.395566
  C     -0.670248    1.253992    0.395618
  C     -1.458365    0.047854   -3.737621
  C      0.770624    1.239214   -3.737569
  C      0.687877   -1.286829   -3.737623
  C     -2.126886    1.314983   -1.693673
  C      2.120011   -1.326033   -1.693676
  C     -2.208383   -1.172896   -1.693726
  C      2.202251    1.184519   -1.693623
  C      0.088433    2.499037   -1.693621
  C     -0.075303   -2.499394   -1.693727
  C     -1.538700    0.050453   -2.249865
  C      0.725739   -1.357732   -2.249867
  C     -0.686079    1.283817   -4.258021
  C     -0.768621   -1.235979   -4.258075
  N      0.000000    0.000000    0.000000
  H      2.465401   -0.080676   -3.907906
  H      1.447703   -0.047308   -5.328003
  H     -1.376844    2.576170   -3.269544
  H     -1.842442    3.447222   -1.833101
  H     -2.062811   -3.317115   -1.826663
  H     -1.546188   -2.486353   -3.269519
  H      2.919448   -0.095563   -3.269548
  H      3.906600   -0.127931   -1.833106
  H     -2.671089    0.462943    0.207581
  H     -2.591206    2.214347    0.203028
  H      3.130131   -1.353645    0.207839
  H      1.588002   -2.187684    0.202756
  H     -2.737355   -2.033961    0.207753
  H     -2.688589   -0.281417    0.202744
  H      1.736464    2.081752    0.207668
  H      3.213282    1.136869    0.203076
  H     -0.392784    3.387593    0.207895
  H      1.100580    2.469088    0.202848
  H      0.934617   -2.544708    0.207562
  H     -0.622083   -3.351230    0.202936
  H      1.433585   -0.046993    1.465539
  H     -0.757489   -1.218088    1.465488
  H     -0.676149    1.264987    1.465541
  H     -2.462741    0.080763   -4.105093
  H      1.301312    2.092591   -4.105005
  H      1.161579   -2.173091   -4.105096
  H     -3.138581    1.355525   -2.039696
  H      2.603795   -2.215484   -2.039701
  H     -3.220562   -1.147126   -2.039749
  H      2.743208    2.040417   -2.039611
  H      0.616841    3.362740   -2.039609
  H      0.395448   -3.395812   -2.039752
  H     -0.682795    1.277719   -5.328007
  H     -1.162659    2.175465   -3.907684
  H     -1.302568   -2.094597   -3.907994
  H     -0.764823   -1.229869   -5.328055

 Total Charge           Charge          ....   -1
 Multiplicity           Mult            ....    3
 Number of Electrons    NEL             ....  206
 Basis Dimension        Dim             ....  728

ORBITAL ENERGIES
----------------
                 SPIN UP ORBITALS
  NO   OCC          E(Eh)            E(eV)
   0   1.0000     -13.855757      -377.0343
   1   1.0000      -9.801453      -266.7111
   2   1.0000      -9.801135      -266.7024
   3   1.0000      -9.801106      -266.7016
   4   1.0000      -9.762884      -265.6616
   5   1.0000      -9.762752      -265.6580
   6   1.0000      -9.762686      -265.6562
   7   1.0000      -9.762627      -265.6546
   8   1.0000      -9.762582      -265.6534
   9   1.0000      -9.762512      -265.6514
  10   1.0000      -9.755617      -265.4638
  11   1.0000      -9.755494      -265.4605
  12   1.0000      -9.755484      -265.4602
  13   1.0000      -9.749178      -265.2886
  14   1.0000      -9.749115      -265.2869
  15   1.0000      -9.748755      -265.2771
  16   1.0000      -9.748563      -265.2719
  17   1.0000      -9.748387      -265.2671
  18   1.0000      -9.747981      -265.2561
  19   1.0000      -9.739926      -265.0369
  20   1.0000      -9.739694      -265.0306
  21   1.0000      -9.739056      -265.0132
  22   1.0000      -9.735529      -264.9172
  23   1.0000      -9.735512      -264.9168
  24   1.0000      -9.735378      -264.9131
  25   1.0000      -9.734655      -264.8934
  26   1.0000      -9.734249      -264.8824
  27   1.0000      -9.734133      -264.8792
  28   1.0000      -0.729713       -19.8565
  29   1.0000      -0.667405       -18.1610
  30   1.0000      -0.652359       -17.7516
  31   1.0000      -0.652234       -17.7482
  32   1.0000      -0.609352       -16.5813
  33   1.0000      -0.598215       -16.2783
  34   1.0000      -0.598014       -16.2728
  35   1.0000      -0.582443       -15.8491
  36   1.0000      -0.582310       -15.8455
  37   1.0000      -0.545778       -14.8514
  38   1.0000      -0.521550       -14.1921
  39   1.0000      -0.521536       -14.1917
  40   1.0000      -0.518952       -14.1214
  41   1.0000      -0.515904       -14.0385
  42   1.0000      -0.515752       -14.0343
  43   1.0000      -0.501957       -13.6589
  44   1.0000      -0.444687       -12.1005
  45   1.0000      -0.444604       -12.0983
  46   1.0000      -0.423892       -11.5347
  47   1.0000      -0.405311       -11.0291
  48   1.0000      -0.405265       -11.0278
  49   1.0000      -0.400249       -10.8913
  50   1.0000      -0.397479       -10.8159
  51   1.0000      -0.384060       -10.4508
  52   1.0000      -0.383933       -10.4473
  53   1.0000      -0.358443        -9.7537
  54   1.0000      -0.357961        -9.7406
  55   1.0000      -0.357841        -9.7373
  56   1.0000      -0.346437        -9.4270
  57   1.0000      -0.312925        -8.5151
  58   1.0000      -0.308981        -8.4078
  59   1.0000      -0.308890        -8.4053
  60   1.0000      -0.301296        -8.1987
  61   1.0000      -0.301245        -8.1973
  62   1.0000      -0.282110        -7.6766
  63   1.0000      -0.279285        -7.5997
  64   1.0000      -0.279181        -7.5969
  65   1.0000      -0.275613        -7.4998
  66   1.0000      -0.275576        -7.4988
  67   1.0000      -0.242661        -6.6032
  68   1.0000      -0.242555        -6.6002
  69   1.0000      -0.238275        -6.4838
  70   1.0000      -0.231009        -6.2861
  71   1.0000      -0.228432        -6.2159
  72   1.0000      -0.226271        -6.1572
  73   1.0000      -0.226220        -6.1557
  74   1.0000      -0.212459        -5.7813
  75   1.0000      -0.212359        -5.7786
  76   1.0000      -0.210097        -5.7170
  77   1.0000      -0.197015        -5.3610
  78   1.0000      -0.190605        -5.1866
  79   1.0000      -0.190592        -5.1863
  80   1.0000      -0.179320        -4.8796
  81   1.0000      -0.179298        -4.8790
  82   1.0000      -0.171372        -4.6633
  83   1.0000      -0.166747        -4.5374
  84   1.0000      -0.166731        -4.5370
  85   1.0000      -0.161160        -4.3854
  86   1.0000      -0.158652        -4.3172
  87   1.0000      -0.156245        -4.2516
  88   1.0000      -0.156178        -4.2498
  89   1.0000      -0.146948        -3.9987
  90   1.0000      -0.146854        -3.9961
  91   1.0000      -0.135096        -3.6761
  92   1.0000      -0.119906        -3.2628
  93   1.0000      -0.119877        -3.2620
  94   1.0000      -0.095622        -2.6020
  95   1.0000      -0.095566        -2.6005
  96   1.0000      -0.092617        -2.5202
  97   1.0000      -0.077023        -2.0959
  98   1.0000      -0.059121        -1.6088
  99   1.0000      -0.056852        -1.5470
 100   1.0000      -0.056521        -1.5380
 101   1.0000       0.002086         0.0568
 102   1.0000       0.047437         1.2908
 103   1.0000       0.047521         1.2931
 104   0.0000       0.096969         2.6387
 105   0.0000       0.113782         3.0962
 106   0.0000       0.116256         3.1635
 107   0.0000       0.117320         3.1924
 108   0.0000       0.124706         3.3934

                 SPIN DOWN ORBITALS
  NO   OCC          E(Eh)            E(eV)
   0   1.0000     -13.855708      -377.0330
   1   1.0000      -9.801408      -266.7099
   2   1.0000      -9.801088      -266.7012
   3   1.0000      -9.801059      -266.7004
   4   1.0000      -9.763113      -265.6678
   5   1.0000      -9.762981      -265.6642
   6   1.0000      -9.762919      -265.6625
   7   1.0000      -9.762859      -265.6609
   8   1.0000      -9.762814      -265.6597
   9   1.0000      -9.762744      -265.6578
  10   1.0000      -9.756017      -265.4747
  11   1.0000      -9.755894      -265.4714
  12   1.0000      -9.755880      -265.4710
  13   1.0000      -9.749070      -265.2857
  14   1.0000      -9.749010      -265.2840
  15   1.0000      -9.748648      -265.2742
  16   1.0000      -9.748457      -265.2690
  17   1.0000      -9.748279      -265.2642
  18   1.0000      -9.747875      -265.2532
  19   1.0000      -9.739770      -265.0326
  20   1.0000      -9.739538      -265.0263
  21   1.0000      -9.738901      -265.0090
  22   1.0000      -9.735334      -264.9119
  23   1.0000      -9.735317      -264.9115
  24   1.0000      -9.735184      -264.9078
  25   1.0000      -9.725965      -264.6570
  26   1.0000      -9.725548      -264.6456
  27   1.0000      -9.725410      -264.6418
  28   1.0000      -0.729093       -19.8396
  29   1.0000      -0.664411       -18.0796
  30   1.0000      -0.650489       -17.7007
  31   1.0000      -0.650364       -17.6973
  32   1.0000      -0.608890       -16.5687
  33   1.0000      -0.597740       -16.2653
  34   1.0000      -0.597539       -16.2599
  35   1.0000      -0.579719       -15.7750
  36   1.0000      -0.579580       -15.7712
  37   1.0000      -0.545171       -14.8349
  38   1.0000      -0.520834       -14.1726
  39   1.0000      -0.520801       -14.1717
  40   1.0000      -0.518276       -14.1030
  41   1.0000      -0.512666       -13.9503
  42   1.0000      -0.512526       -13.9465
  43   1.0000      -0.495601       -13.4860
  44   1.0000      -0.444048       -12.0832
  45   1.0000      -0.443967       -12.0809
  46   1.0000      -0.423679       -11.5289
  47   1.0000      -0.404547       -11.0083
  48   1.0000      -0.404502       -11.0071
  49   1.0000      -0.399164       -10.8618
  50   1.0000      -0.395471       -10.7613
  51   1.0000      -0.381077       -10.3696
  52   1.0000      -0.380945       -10.3660
  53   1.0000      -0.357236        -9.7209
  54   1.0000      -0.356412        -9.6985
  55   1.0000      -0.356284        -9.6950
  56   1.0000      -0.341548        -9.2940
  57   1.0000      -0.310402        -8.4465
  58   1.0000      -0.307459        -8.3664
  59   1.0000      -0.307338        -8.3631
  60   1.0000      -0.297567        -8.0972
  61   1.0000      -0.297467        -8.0945
  62   1.0000      -0.280725        -7.6389
  63   1.0000      -0.277401        -7.5485
  64   1.0000      -0.277283        -7.5453
  65   1.0000      -0.273895        -7.4531
  66   1.0000      -0.273875        -7.4525
  67   1.0000      -0.240917        -6.5557
  68   1.0000      -0.240806        -6.5527
  69   1.0000      -0.236298        -6.4300
  70   1.0000      -0.228803        -6.2260
  71   1.0000      -0.225350        -6.1321
  72   1.0000      -0.224743        -6.1156
  73   1.0000      -0.224704        -6.1145
  74   1.0000      -0.212074        -5.7708
  75   1.0000      -0.211975        -5.7681
  76   1.0000      -0.209854        -5.7104
  77   1.0000      -0.195759        -5.3269
  78   1.0000      -0.187667        -5.1067
  79   1.0000      -0.187642        -5.1060
  80   1.0000      -0.178338        -4.8528
  81   1.0000      -0.178314        -4.8522
  82   1.0000      -0.171015        -4.6536
  83   1.0000      -0.165971        -4.5163
  84   1.0000      -0.165957        -4.5159
  85   1.0000      -0.159857        -4.3499
  86   1.0000      -0.156045        -4.2462
  87   1.0000      -0.154811        -4.2126
  88   1.0000      -0.154745        -4.2108
  89   1.0000      -0.144814        -3.9406
  90   1.0000      -0.144718        -3.9380
  91   1.0000      -0.131999        -3.5919
  92   1.0000      -0.117083        -3.1860
  93   1.0000      -0.117056        -3.1852
  94   1.0000      -0.093247        -2.5374
  95   1.0000      -0.093189        -2.5358
  96   1.0000      -0.090765        -2.4698
  97   1.0000      -0.060820        -1.6550
  98   1.0000      -0.058620        -1.5951
  99   1.0000      -0.056454        -1.5362
 100   1.0000      -0.056123        -1.5272
 101   1.0000       0.023519         0.6400
 102   0.0000       0.083355         2.2682
 103   0.0000       0.083650         2.2762
 104   0.0000       0.097826         2.6620
 105   0.0000       0.117820         3.2060
 106   0.0000       0.119385         3.2486

MULLIKEN ATOMIC CHARGES AND SPIN POPULATIONS
--------------------------------------------
   0 C :    0.934839    0.342398
   1 C :   -0.338276    0.006937
   2 C :   -0.376398   -0.032344
   3 C :   -0.380272   -0.031733
   4 C :   -0.351881   -0.028157
   5 C :   -0.353015   -0.013503
   6 C :   -0.352429   -0.013250
   7 C :   -0.347240   -0.014403
   8 C :   -0.339296   -0.014640
   9 C :   -0.365055   -0.014169
  10 C :   -0.363304   -0.014010
  11 C :   -0.176852    0.009309
  12 C :   -0.150420    0.009666
  13 C :   -0.149129    0.009690
  14 C :   -0.333829    0.040227
  15 C :   -0.368738    0.041890
  16 C :   -0.366677    0.038349
  17 C :   -0.307104    0.102810
  18 C :   -0.317991    0.099109
  19 C :   -0.308957    0.104298
  20 C :   -0.326042    0.103851
  21 C :   -0.313103    0.100350
  22 C :   -0.303627    0.098248
  23 C :    0.886036    0.342001
  24 C :    0.927114    0.350372
  25 C :   -0.324084    0.003626
  26 C :   -0.334743    0.003992
  27 N :    0.382097   -0.017455
  28 H :    0.152129    0.000464
  29 H :    0.076005   -0.000731
  30 H :    0.165625   -0.001299
  31 H :    0.075904   -0.001403
  32 H :    0.077538   -0.001532
  33 H :    0.161554   -0.001293
  34 H :    0.151249   -0.001389
  35 H :    0.066219   -0.002053
  36 H :    0.148657   -0.000814
  37 H :    0.069794   -0.000448
  38 H :    0.073792   -0.000853
  39 H :    0.155101   -0.000634
  40 H :    0.066736   -0.000453
  41 H :    0.153619   -0.000766
  42 H :    0.144820   -0.000451
  43 H :    0.070610   -0.000780
  44 H :    0.081301   -0.000549
  45 H :    0.161231   -0.001370
  46 H :    0.154931   -0.001421
  47 H :    0.083057   -0.000695
  48 H :    0.093123    0.000288
  49 H :    0.082668    0.000221
  50 H :    0.081800    0.000231
  51 H :    0.051080    0.041837
  52 H :    0.058435    0.042846
  53 H :    0.060570    0.043114
  54 H :    0.057438    0.046349
  55 H :    0.055901    0.046061
  56 H :    0.057368    0.046591
  57 H :    0.056186    0.045994
  58 H :    0.061685    0.045400
  59 H :    0.059509    0.045799
  60 H :    0.075169   -0.000603
  61 H :    0.148604    0.000760
  62 H :    0.151976    0.000721
  63 H :    0.076986   -0.000599
Sum of atomic charges         :   -1.0000000

LOEWDIN ATOMIC CHARGES AND SPIN POPULATIONS
-------------------------------------------
   0 C :   -0.103340    0.457294
   1 C :   -0.015664    0.011144
   2 C :   -0.022086    0.008684
   3 C :   -0.022457    0.008766
   4 C :   -0.020152    0.009390
   5 C :   -0.009855    0.010149
   6 C :   -0.012634    0.010001
   7 C :   -0.009705    0.010133
   8 C :   -0.011220    0.009986
   9 C :   -0.011930    0.009796
  10 C :   -0.012235    0.009837
  11 C :   -0.072805    0.001216
  12 C :   -0.070779    0.001303
  13 C :   -0.070611    0.001324
  14 C :   -0.106693    0.025896
  15 C :   -0.109502    0.026717
  16 C :   -0.109678    0.026378
  17 C :   -0.105876    0.037468
  18 C :   -0.105541    0.037101
  19 C :   -0.106238    0.037787
  20 C :   -0.105943    0.037639
  21 C :   -0.105320    0.036429
  22 C :   -0.104966    0.036422
  23 C :   -0.104772    0.456698
  24 C :   -0.103633    0.458660
  25 C :   -0.015715    0.010395
  26 C :   -0.016563    0.010458
  27 N :   -0.011302    0.007037
  28 H :   -0.010948    0.000536
  29 H :    0.025090   -0.000364
  30 H :   -0.009443    0.000449
  31 H :    0.024639   -0.000278
  32 H :    0.024883   -0.000276
  33 H :   -0.008584    0.000443
  34 H :   -0.010214    0.000435
  35 H :    0.023680   -0.000309
  36 H :   -0.014537    0.000521
  37 H :    0.028882    0.000248
  38 H :    0.029426    0.000224
  39 H :   -0.015390    0.000527
  40 H :    0.028331    0.000246
  41 H :   -0.016178    0.000523
  42 H :   -0.013936    0.000517
  43 H :    0.029368    0.000234
  44 H :    0.029790    0.000242
  45 H :   -0.015873    0.000526
  46 H :   -0.013894    0.000519
  47 H :    0.030267    0.000242
  48 H :    0.033989    0.000174
  49 H :    0.033124    0.000179
  50 H :    0.033086    0.000186
  51 H :    0.043618    0.019285
  52 H :    0.043987    0.019476
  53 H :    0.044052    0.019570
  54 H :    0.045118    0.021986
  55 H :    0.045003    0.021931
  56 H :    0.045014    0.022031
  57 H :    0.045021    0.021924
  58 H :    0.045687    0.021731
  59 H :    0.045532    0.021811
  60 H :    0.025275   -0.000347
  61 H :   -0.011028    0.000552
  62 H :   -0.011023    0.000549
  63 H :    0.025401   -0.000351

  Mayer bond orders larger than 0.100000
B(  0-C , 15-C ) :   1.0629 B(  0-C , 20-C ) :   1.0399 B(  0-C , 21-C ) :   1.0579
B(  0-C , 23-C ) :   0.1936 B(  0-C , 24-C ) :   0.1979 B(  0-C , 27-N ) :   0.1576
B(  1-C ,  4-C ) :   0.1370 B(  1-C , 15-C ) :   0.9621 B(  1-C , 16-C ) :   0.9658
B(  1-C , 28-H ) :   0.7789 B(  1-C , 29-H ) :   0.9875 B(  2-C , 17-C ) :   0.9838
B(  2-C , 21-C ) :   0.9752 B(  2-C , 25-C ) :   0.1517 B(  2-C , 30-H ) :   0.7693
B(  2-C , 31-H ) :   0.9739 B(  3-C , 19-C ) :   0.9828 B(  3-C , 22-C ) :   0.9754
B(  3-C , 26-C ) :   0.1503 B(  3-C , 32-H ) :   0.9762 B(  3-C , 33-H ) :   0.7731
B(  4-C , 18-C ) :   0.9824 B(  4-C , 20-C ) :   0.9799 B(  4-C , 34-H ) :   0.7794
B(  4-C , 35-H ) :   0.9853 B(  5-C ,  7-C ) :   0.1537 B(  5-C , 13-C ) :   0.9402
B(  5-C , 17-C ) :   0.9631 B(  5-C , 36-H ) :   0.7712 B(  5-C , 37-H ) :   0.9811
B(  6-C , 10-C ) :   0.1545 B(  6-C , 11-C ) :   0.9570 B(  6-C , 18-C ) :   0.9624
B(  6-C , 38-H ) :   0.9736 B(  6-C , 39-H ) :   0.7674 B(  7-C , 12-C ) :   0.9383
B(  7-C , 19-C ) :   0.9646 B(  7-C , 40-H ) :   0.9806 B(  7-C , 41-H ) :   0.7709
B(  8-C ,  9-C ) :   0.1508 B(  8-C , 11-C ) :   0.9541 B(  8-C , 20-C ) :   0.9649
B(  8-C , 42-H ) :   0.7685 B(  8-C , 43-H ) :   0.9739 B(  9-C , 13-C ) :   0.9591
B(  9-C , 21-C ) :   0.9629 B(  9-C , 44-H ) :   0.9737 B(  9-C , 45-H ) :   0.7665
B( 10-C , 12-C ) :   0.9618 B( 10-C , 22-C ) :   0.9608 B( 10-C , 46-H ) :   0.7639
B( 10-C , 47-H ) :   0.9737 B( 11-C , 12-C ) :   0.1057 B( 11-C , 13-C ) :   0.1064
B( 11-C , 27-N ) :   1.1163 B( 11-C , 48-H ) :   1.0095 B( 12-C , 13-C ) :   0.1074
B( 12-C , 27-N ) :   1.1010 B( 12-C , 49-H ) :   1.0150 B( 13-C , 27-N ) :   1.0978
B( 13-C , 50-H ) :   1.0171 B( 14-C , 17-C ) :   0.2226 B( 14-C , 19-C ) :   0.2231
B( 14-C , 23-C ) :   1.0628 B( 14-C , 25-C ) :   0.9605 B( 14-C , 26-C ) :   0.9594
B( 14-C , 51-H ) :   1.0206 B( 15-C , 20-C ) :   0.2284 B( 15-C , 21-C ) :   0.2263
B( 15-C , 25-C ) :   0.9573 B( 15-C , 52-H ) :   1.0180 B( 16-C , 18-C ) :   0.2244
B( 16-C , 22-C ) :   0.2210 B( 16-C , 24-C ) :   1.0683 B( 16-C , 26-C ) :   0.9592
B( 16-C , 53-H ) :   1.0110 B( 17-C , 19-C ) :   0.2181 B( 17-C , 23-C ) :   1.0628
B( 17-C , 54-H ) :   1.0065 B( 18-C , 22-C ) :   0.2119 B( 18-C , 24-C ) :   1.0468
B( 18-C , 55-H ) :   1.0083 B( 19-C , 23-C ) :   1.0594 B( 19-C , 56-H ) :   1.0092
B( 20-C , 21-C ) :   0.2127 B( 20-C , 57-H ) :   1.0152 B( 21-C , 58-H ) :   1.0027
B( 22-C , 24-C ) :   1.0657 B( 22-C , 59-H ) :   0.9988 B( 23-C , 24-C ) :   0.1941
B( 23-C , 27-N ) :   0.1599 B( 24-C , 27-N ) :   0.1571 B( 25-C , 60-H ) :   0.9784
B( 25-C , 61-H ) :   0.7720 B( 26-C , 62-H ) :   0.7760 B( 26-C , 63-H ) :   0.9796
B( 28-H , 34-H ) :   0.2282 B( 30-H , 61-H ) :   0.2270 B( 33-H , 62-H ) :   0.2244
B( 36-H , 41-H ) :   0.2417 B( 39-H , 46-H ) :   0.2420 B( 42-H , 45-H ) :   0.2418

FINAL SINGLE POINT ENERGY     -1103.168041826322

DIPOLE MOMENT
-------------
                                X             Y             Z
Electronic contribution:     -0.00836       0.00401       1.06735
Nuclear contribution   :     -0.00211      -0.00317      -0.32886
                        -----------------------------------------
Total Dipole Moment    :     -0.01047       0.00083       0.73848
                        -----------------------------------------
Magnitude (a.u.)       :      0.73856
Magnitude (Debye)      :      1.87727

Rotational constants in cm-1:     0.009246     0.009141     0.009141
Rotational constants in MHz :   277.183097   274.048600   274.045280

                             ****ORCA TERMINATED NORMALLY****
TOTAL RUN TIME: 0 days 0 hours 5 minutes 10 seconds 694 msec
